/*--------------------------------*- C++ -*----------------------------------*\
| =========                 |                                                 |
| \\      /  F ield         | OpenFOAM: The Open Source CFD Toolbox           |
|  \\    /   O peration     | Version:  v2006                                 |
|   \\  /    A nd           | Website:  www.openfoam.com                      |
|    \\/     M anipulation  |                                                 |
\*---------------------------------------------------------------------------*/
FoamFile
{
    version     2.0;
    format      ascii;
    class       volScalarField;
    location    "0";
    object      p;
}
// * * * * * * * * * * * * * * * * * * * * * * * * * * * * * * * * * * * * * //

dimensions      [1 -1 -2 0 0 0 0];


internalField   nonuniform List<scalar> 
3280
(
0.999828557115
0.999819772752
0.999829545438
0.999851987851
0.999842966665
0.999854758216
0.999820799086
0.999835433887
0.999836118236
0.999819007171
0.999851919732
0.999854419223
0.9998590059
0.999874796353
0.999862602513
0.99986104347
0.99986201328
0.999854520783
0.999860425762
0.999873648023
0.999874032852
0.999874867828
0.999890145311
0.999906438778
0.99993507089
0.999934839955
0.999935510651
0.999891582449
0.999936053716
0.999893646676
0.999983851998
0.999984386148
0.999958837404
0.999936724712
0.999950132458
0.99995821886
0.999912311374
0.999953043778
0.999951743219
0.999924319351
0.999937750656
0.999925987784
0.999935164782
0.999935116985
0.999958305548
0.999926813147
0.999923004949
0.999959405352
0.999971685782
0.99997232448
0.999971831047
0.999971688188
0.999959289797
0.999960941698
0.999967281002
0.999960235716
0.99995319431
0.999952130087
0.999950975047
0.999975854009
0.999970439769
0.999992330819
0.999991948177
0.999991953016
0.999992051579
0.999983204677
0.999982574062
0.999987494484
0.999965834812
0.999964450684
0.999977558254
0.999977840105
0.999987827598
0.999994376977
0.99999497318
0.999994059519
0.999990731721
0.999994783804
0.999981567133
0.999991054102
0.999977154182
0.999983959829
0.999981248068
0.999985049074
0.99999913201
0.999999104534
0.999997873643
0.999997755145
0.999999114693
0.999994173066
0.999994343001
0.999997898767
0.9999943619
0.99998806028
0.999995548056
0.999997823344
0.999997031824
0.999999261563
0.999998784646
0.999998907357
0.999999766557
0.999999746796
0.999995217959
0.999998186801
0.999992267439
0.999998062519
0.999998840724
0.999998047084
0.999999775463
0.999995171525
0.999999779941
0.999999746088
0.999999868554
0.999999855138
0.999999737256
0.999998358452
0.999996967335
0.999999754223
0.999996977865
0.99999629931
0.999999757801
0.999999491807
0.999999701322
0.999999975696
0.999999976879
0.99999997819
0.999999494637
0.999999099042
0.999998508917
0.999998173244
0.999999937783
0.999999975272
0.999999690358
0.999999645952
0.999997497391
0.999999908811
0.99999999725
0.999999997284
0.999999997309
0.999999945754
0.999999973495
0.999999943311
0.999999384231
0.999999035268
0.999999717855
0.999999394102
0.999999422173
0.999999971244
0.999999992574
0.999999950086
0.999999535891
0.999999992792
0.999999992824
0.999999992942
0.999999973508
0.999999902458
0.999999986055
0.999999523109
0.999999990529
0.999999739198
0.999999972251
0.99999972488
0.999999701784
0.999999992353
0.999999966811
0.999999986483
0.999999991261
0.999999995762
0.999999995778
0.999999932201
0.999999998055
0.999999999048
0.99999999983
0.999999999045
0.999999999005
0.999999961653
0.999999997271
0.9999999795
0.999999843755
0.999999996255
0.9999999991
0.999999999813
0.9999999998
0.999999999824
0.999999970566
0.99999999957
0.999999999515
0.999999999957
0.999999999834
0.999999999816
0.999999999821
0.999999961559
0.999999995495
0.999999961
0.999999958279
0.999999999451
0.999999999095
0.999999999837
0.999999999533
0.999999972109
0.99999993591
0.999999999685
0.999999999987
0.999999996877
0.999999984055
0.999999980297
0.999999989607
0.999999999958
0.999999999948
0.999999999957
0.999999999958
0.999999999839
0.999999999964
0.999999978421
0.999999991042
0.999999988926
0.999999993585
0.999999999969
0.999999999966
0.999999999867
0.99999999833
0.99999999317
0.999999995868
0.999999999996
0.999999992069
0.999999999996
0.999999999999
0.999999999999
0.999999999999
0.999999999996
0.999999999999
0.999999997982
0.999999994285
0.999999999989
0.999999997499
0.99999999939
0.999999999689
0.999999999737
0.999999999996
0.999999993302
0.999999991154
0.999999989762
0.999999999997
1
0.999999999995
0.99999999952
1
1
1
1
0.999999999998
0.999999998569
0.999999997197
0.999999999986
0.99999999835
0.999999998413
0.999999997541
0.999999999993
0.99999999774
0.999999998452
0.999999999994
1
0.999999999998
0.99999999905
0.999999999999
1
1
0.999999999427
0.999999999939
0.999999999514
0.999999999721
0.999999999747
0.999999999486
0.999999999707
0.999999999547
0.999999999731
1
1
1
0.999999999954
0.999999999999
0.99999999996
0.999999999209
1
1
1
1
1
0.999999999846
0.999999999993
1
1
1
1
1
1
0.999999999998
1
1
1
0.999999999987
0.99999999995
0.999999999944
1
1
0.999999999832
0.99999999991
1
0.999999999999
1
1
1
0.999999999786
0.999999999889
0.999999999792
0.999999999909
0.999999999994
0.999999999801
1
1
1
1
1
1
1
0.999999999962
0.999999999987
0.999999999999
1
0.999999999987
1
1
1
1
1
1
0.999999999963
0.999999999978
0.999999999952
0.999999999952
1
1
1
0.999999999998
0.999999999983
1
0.999999999995
0.999999999999
1
1
1
1
1
1
1
1
1
0.999999999999
0.999999999999
1
0.999999999999
0.999999999988
1
1
1
0.999999999988
0.99999999999
1
1
1
0.999999999989
0.999999999998
0.999999999998
1
0.999999999998
1
1
1
1
1
0.999999999998
1
1
1
1
1
1
1
0.999999999999
1
1
1
0.999999999997
0.999999999999
0.999999999998
1
1
1
1
0.999999999999
1
1
0.999999999996
1
1
1
1
0.999999999997
1
1
1
1
0.999999999999
1
1
1
1
1
0.999999999999
1
0.999999999999
1
1
0.999999999999
1
1
1
1
1
0.999999999999
1
1
1
1
1
1
1
0.999999999996
1
1
1
1
1
1
1
1
1
1
1
1
1
1
1
1
1
1
1
1
1
1
1
1
1
1
1
1
1
1
1
1
1
1
1
1
1
1
1
1
1
1
1
1
1
1
1
1
1
1
1
1
1
1
1
1
1
1
1
1
1
1
1
1
1
1
1
1
1
1
1
1
1
1
1
1
1
1
1
1
1
1
1
1
1
1
1
1
1
1
1
1
1
1
1
1
1
1
1
1
1
1
1
1
1
1
1
1
1
1
1
1
1
1
1
1
1
1
1
1
1
1
1
1
1
1
1
1
1
1
1
1
1
1
1
1
1
1
1
1
1
1
1
1
1
1
1
1
1
1
1
1
1
1
1
1
1
1
1
1
1
1
1
1
1
1
1
1
1
1
1
1
1
1
1
1
1
1
1
1
1
1
1
1
1
1
1
1
1
1
1
1
1
1
1
1
1
1
1
1
1
1
1
1
1
1
1
0.999999993256
0.999812146332
0.999812749236
0.999821289754
0.999832141328
0.99983092237
0.999827584529
0.999812317044
0.999812131505
0.999823195735
0.999820827871
0.99982298814
0.999832258783
0.999830551586
0.999841115995
0.999843284776
0.999854289075
0.999886951781
0.999904789332
0.999886577747
0.999887254216
0.999886888846
0.999884546318
0.999886770171
0.999883936552
0.999845818711
0.999821587621
0.999841436889
0.999854095488
0.999852785562
0.999845373789
0.999841626911
0.999843492338
0.999840556245
0.999865821888
0.999852880413
0.99986151795
0.999863169872
0.999904459689
0.999874898368
0.999875538802
0.999872655012
0.999886844119
0.999867018815
0.999871617863
0.999864635065
0.999905009852
0.999872285103
0.999867204812
0.999905740165
0.999871145368
0.999907595762
0.999941229042
0.999919987897
0.999903488855
0.999904085433
0.999906401858
0.999893106613
0.999900583433
0.999906170685
0.999920856722
0.999920041914
0.999905641846
0.999871447561
0.999894690792
0.999879129529
0.999921291129
0.999893292565
0.999882354597
0.999922170663
0.999940219133
0.999920680317
0.999920929078
0.999906197816
0.999896339159
0.999905332266
0.999892458419
0.999904227994
0.999948160975
0.999947084116
0.99994699503
0.999939858904
0.999948921778
0.999940969984
0.999976429619
0.999976610656
0.999983658451
0.9999218521
0.999937800284
0.999933646304
0.999931594524
0.999953007098
0.999942711573
0.999965773456
0.999965223801
0.999939014654
0.999950355563
0.999920647932
0.999960974037
0.999925843365
0.999959965634
0.999938646224
0.999924144451
0.99994352154
0.999919724761
0.999936114849
0.999919525246
0.999966018013
0.99993765101
0.999919863591
0.999910978806
0.999963623506
0.999931073213
0.999937555629
0.999953986021
0.999933088801
0.999941440895
0.999945150343
0.999976626751
0.999960145605
0.999975930419
0.999977189382
0.999954969188
0.999957580721
0.99997059181
0.999970651204
0.999976945543
0.999960060658
0.99995512988
0.999945504844
0.99994402364
0.999952965636
0.99994903314
0.999976460632
0.999967577361
0.999976504506
0.99996883659
0.999964584173
0.999983600545
0.999968434592
0.999956142146
0.999944144721
0.999957558859
0.999956797437
0.99996766764
0.999944863952
0.999931376261
0.99995989406
0.999960873791
0.999957893102
0.999942493278
0.99995836229
0.999956217938
0.999959646621
0.999962984914
0.999956456172
0.999986792136
0.99998820798
0.999985708685
0.99998785421
0.999983555322
0.999987621416
0.999979019849
0.999972302766
0.999970600705
0.999977100468
0.999982257702
0.999967556821
0.999970749282
0.999987692908
0.999973097421
0.999976236668
0.999974272503
0.999970037157
0.999963684333
0.999971632415
0.999963691936
0.999971007457
0.999963392231
0.999979210056
0.999972813634
0.999974213815
0.999974948818
0.999987990029
0.999988981059
0.999979263004
0.999965594186
0.999962725327
0.999982886693
0.999977423394
0.999981831503
0.999981128852
0.999965630808
0.99996897187
0.999988212519
0.999982970689
0.999972995739
0.999963569702
0.999984471266
0.99999276238
0.999982663036
0.999977239212
0.999985676442
0.999996469781
0.99999269154
0.999994530981
0.999997240064
0.999993018133
0.999996581415
0.999992912615
0.999991371753
0.999985107294
0.999982239121
0.999982210431
0.999991269269
0.999977450935
0.999981431944
0.999982214896
0.999986804101
0.999973623961
0.999982544837
0.999990679071
0.999989841316
0.999979019514
0.999982409232
0.999980297581
0.999977923657
0.999977850898
0.999994115641
0.999988926857
0.999971755929
0.999980500721
0.999989438535
0.999989111988
0.99999304489
0.999989878455
0.999994274009
0.999988863096
0.999986699882
0.999984765813
0.999992010417
0.999994861307
0.999996934957
0.999994455625
0.999987270731
0.99998201557
0.999976281799
0.999994425102
0.99998526787
0.999984118401
0.999993348996
0.999999749274
0.999999718399
0.999999728912
0.999998971259
0.999998617129
0.999996381963
0.999982824269
0.999996611751
0.999998463205
0.999998250457
0.999989079268
0.999987467675
0.999991065214
0.999990668114
0.999987127577
0.999990067565
0.999985186202
0.999994617525
0.999992088135
0.999996069669
0.999997525876
0.999996962497
0.999996576655
0.99999591011
0.999994632908
0.999998281678
0.999996007537
0.999986832894
0.999998276619
0.999997701233
0.999986157416
0.999994095237
0.9999919481
0.999988607217
0.999991315505
0.999991137287
0.999984144582
0.999986762703
0.999988649017
0.99999316836
0.999992330269
0.999987506094
0.999992203352
0.999994867126
0.999989472983
0.999996946464
0.999994644547
0.999996939917
0.999998391182
0.999993119744
0.999990901926
0.999998161922
0.999998381657
0.999996471991
0.999996855097
0.999995219989
0.999993640937
0.999996750809
0.999998616498
0.999996330154
0.999991614732
0.99999760774
0.999989555244
0.999988192265
0.99999992472
0.999999863215
0.999999859766
0.999999929534
0.999999415247
0.99999942288
0.999999108884
0.999999331467
0.99999323418
0.999996872151
0.999995039845
0.999999470389
0.999999143606
0.999996548736
0.999999788173
0.999999293876
0.999999424814
0.999994806329
0.999995698638
0.999995685602
0.999998778232
0.999998865532
0.999997826047
0.999998929496
0.999994746944
0.999997752404
0.999997708446
0.999998551869
0.999995487994
0.999994690526
0.999998881126
0.999995850616
0.999993101982
0.999995454605
0.999996757205
0.999991715631
0.999997524524
0.999997580816
0.999989913334
0.999997331825
0.999998289694
0.999994780538
0.999991492791
0.999997644288
0.999992924501
0.999993381695
0.99999127335
0.999994199742
0.999992422628
0.999992655847
0.999997562965
0.999997676611
0.999995028514
0.999992494129
0.999995635758
0.999997756802
0.999993347949
0.999999602748
0.999999111011
0.999996707456
0.999995220671
0.999998773766
0.999999214921
0.999997562242
0.999995284711
0.999999347764
0.999998865809
0.999999620364
0.999997955233
0.999990057208
0.999996089945
0.999996343695
0.99999900291
0.99999963413
0.999994056308
0.99999354627
0.999996225247
0.999998973404
0.999996469177
0.999996333479
0.999999505171
0.999999629109
0.999997883545
0.999999793425
0.999997261186
0.999997579337
0.999999515953
0.999999344373
0.999999869362
0.999998904304
0.999997854983
0.999996922314
0.999998337969
0.999999923336
0.999996601703
0.999997398174
0.99999892329
0.999998037628
0.999999630615
0.999999772204
0.999999547301
0.999997255712
0.999995511813
0.999996075295
0.999998382291
0.999997253086
0.9999985677
0.999994439323
0.999996398994
0.999997995219
0.999996951422
0.99999839021
0.999999151693
0.999999684187
0.99999986642
0.999998997678
0.999998371746
0.999999275535
0.999997033716
0.999999412139
0.999999898257
0.999999026119
0.999999388417
0.999999503512
0.999998973943
0.999998908695
0.999997769239
0.999998337976
0.999996011685
0.999994951387
0.999999397389
0.999997042337
0.999999855298
0.999998865375
0.999998714254
0.999997606993
0.999999495048
0.99999745305
0.999998573983
0.999998850716
0.999999786116
0.999998937565
0.999999876935
0.999998065392
0.999999913489
0.999997697242
0.999998407985
0.999998558045
0.999999780265
0.999999123004
0.999999952517
0.999999954487
0.999999640982
0.999999903307
0.99999986058
0.999999881238
0.999998774948
0.999999908097
0.999999673644
0.999999300079
0.999998906742
0.999999034532
0.999999231033
0.999998012862
0.999997500792
0.999999065667
0.999999618821
0.999998960315
0.999998855476
0.999995867169
0.999998342076
0.999999133438
0.999999610771
0.999999054085
0.999999953277
0.999999957528
0.999999688605
0.999999850535
0.999999860019
0.999999981259
0.999999902524
0.999999202036
0.999999661263
0.999998146793
0.9999981546
0.999998709087
0.999997324082
0.999998789362
0.999998690422
0.999999954459
0.999999850529
0.999999908106
0.999999956082
0.999999761476
0.999999676091
0.99999968067
0.999999587271
0.999999877861
0.999999863722
0.999999952468
0.999999059477
0.999999814821
0.999999726507
0.99999960771
0.999999600898
0.999999609125
0.999998676196
0.999999731071
0.999999903822
0.999998686723
0.999998244784
0.99999868781
0.999999338616
0.999997233834
0.999998378283
0.999999338886
0.999998167116
0.999998349296
0.999999424319
0.999999588756
0.999999065546
0.999999033804
0.999999981262
0.999999999252
0.99999999922
0.999999999236
0.99999999824
0.999999937674
0.999999565431
0.999999735686
0.999999866961
0.999999540254
0.999999823008
0.999999981588
0.999999986892
0.999999995212
0.999999585781
0.999999533773
0.999999948362
0.999999993573
0.999999976711
0.999999416022
0.999999863445
0.999999592038
0.999999603336
0.999999958617
0.999999981771
0.999999858462
0.999999199229
0.999998802706
0.99999972755
0.999999568917
0.999999811807
0.999999516061
0.999999375403
0.999999947938
0.999999941625
0.999999986233
0.999999855979
0.999999262619
0.999999874353
0.999999345335
0.999999482863
0.999999736017
0.999999635874
0.999999650605
0.999999103858
0.999999184069
0.999999724622
0.999999049838
0.999999452678
0.999999570209
0.999999192006
0.999999262002
0.999999852639
0.999999637101
0.999999913638
0.999999939328
0.999999974247
0.999999081685
0.999999223252
0.999999516699
0.999998740053
0.999999323916
0.999998692084
0.999999984967
0.999999971201
0.999999403331
0.999999803143
0.999999917034
0.999999988298
0.999999995188
0.999999837994
0.999999866068
0.999999986102
0.999999986013
0.999999961472
0.99999999386
0.99999994966
0.999999126588
0.999999972526
0.999999985914
0.999999973846
0.999999907569
0.999999754518
0.999999988385
0.999999691917
0.999999974998
0.99999935965
0.999999606353
0.99999923441
0.999999581239
0.999999461825
0.99999996371
0.999999994595
0.999999951849
0.999999699474
0.999999990844
0.999999868028
0.999999993687
0.999999904674
0.999999974901
0.999999992867
0.999999854846
0.999999998211
0.999999996161
0.999999998147
0.999999996142
0.999999998262
0.999999998231
0.999999630234
0.999999985727
0.999999753773
0.99999982456
0.999999695655
0.999999780244
0.999999755093
0.999999852498
0.999999884357
0.999999804277
0.999999954752
0.999999837085
0.999999867941
0.999999845938
0.999999896165
0.999999778263
0.99999998606
0.999999916622
0.999999649225
0.999999895893
0.999999950903
0.999999964038
0.999999435822
0.999999741639
0.999999999256
0.999999953614
0.999999785803
0.99999994353
0.999999986726
0.999999975851
0.999999953247
0.999999951734
0.999999985276
0.999999848417
0.99999967988
0.999999505583
0.999999804018
0.999999792597
0.999999947808
0.999999952519
0.999999961963
0.999999953519
0.999999991037
0.999999819524
0.999999619752
0.999999926583
0.999999995769
0.999999998154
0.999999996433
0.999999852943
0.999999998279
0.999999993819
0.999999608734
0.999999983151
0.999999951879
0.999999949916
0.999999889242
0.999999862988
0.999999733889
0.999999839133
0.99999979212
0.999999971033
0.999999915003
0.999999816756
0.999999648832
0.999999993708
0.999999768137
0.999999164525
0.99999998844
0.99999979786
0.999999992457
0.999999604161
0.999999995517
0.999999871592
0.999999995707
0.999999503932
0.999999698873
0.999999782592
0.999999988964
0.999999887698
0.999999995381
0.999999998215
0.999999996932
0.999999982327
0.999999996309
0.999999857362
0.99999989562
0.999999874213
0.999999926293
0.999999887884
0.999999942092
0.999999728977
0.999999973613
0.999999999006
0.999999999868
0.999999999867
0.999999999587
0.999999999606
0.999999999621
0.999999999601
0.999999999614
0.999999993744
0.999999991984
0.999999768939
0.999999999089
0.999999971671
0.999999947332
0.999999991981
0.999999948166
0.999999845497
0.999999881173
0.999999956881
0.999999983948
0.999999887042
0.99999997599
0.999999941343
0.999999984561
0.999999948255
0.99999998568
0.999999994305
0.999999999104
0.999999997698
0.999999859919
0.999999947303
0.999999999137
0.999999997667
0.999999997631
0.999999996936
0.999999997736
0.999999999155
0.99999999963
0.999999913992
0.999999889284
0.999999989729
0.999999949634
0.999999946299
0.999999936475
0.999999992592
0.999999999594
0.999999999038
0.999999848069
0.999999999
0.999999926133
0.999999715409
0.999999947091
0.999999976251
0.999999996248
0.999999992725
0.999999999599
0.999999980046
0.999999985246
0.999999958092
0.999999994774
0.999999984767
0.99999999815
0.999999832864
0.999999967006
0.99999994311
0.999999985691
0.999999980258
0.999999999196
0.999999929614
0.999999910072
0.999999867443
0.999999891403
0.999999996096
0.999999900399
0.999999986362
0.999999988247
0.999999884913
0.999999898718
0.999999903343
0.999999854318
0.999999942889
0.999999917806
0.999999911245
0.999999909356
0.999999847306
0.999999901242
0.999999999857
0.999999990457
0.99999995477
0.999999974521
0.999999957994
0.999999996665
0.999999999772
0.999999999908
0.999999999647
0.999999999807
0.999999999908
0.999999999977
0.999999999918
0.999999999977
0.999999999969
0.999999964071
0.999999960363
0.999999999972
0.999999973487
0.999999982804
0.999999978252
0.99999999957
0.999999970673
0.999999999221
0.999999971539
0.999999986992
0.999999996036
0.999999988997
0.99999991656
0.999999978102
0.999999998027
0.999999984802
0.999999982715
0.999999981113
0.999999989971
0.999999992775
0.999999955367
0.999999999809
0.99999996993
0.999999999801
0.999999999764
0.999999995806
0.999999998776
0.999999999917
0.999999977085
0.999999958718
0.999999978328
0.999999933846
0.999999989085
0.999999985848
0.999999991812
0.999999996029
0.999999995821
0.999999957759
0.999999935177
0.999999974999
0.999999987241
0.999999959759
0.999999936727
0.99999996056
0.999999996263
0.999999998662
0.999999995836
0.999999998999
0.999999995614
0.999999995783
0.999999999607
0.999999982957
0.999999999926
0.999999999926
0.999999999926
0.999999999972
0.999999996121
0.999999996646
0.999999999
0.999999998032
0.999999976684
0.999999979372
0.999999999971
0.999999961673
0.999999997236
0.999999999152
0.999999958499
0.999999937263
0.999999965234
0.999999967916
0.999999939973
0.999999923777
0.999999947331
0.999999999977
0.999999999808
0.999999999081
0.999999992882
0.999999943326
0.99999998867
0.999999964648
0.99999994843
0.999999934897
0.999999901125
0.999999996245
0.999999998246
0.999999999966
0.999999999918
0.999999998987
0.999999982738
0.999999998052
0.99999996251
0.999999996815
0.999999988841
0.999999999994
0.999999999993
0.999999999998
0.999999999998
0.999999996363
0.999999999987
0.999999996352
0.999999975865
0.999999999972
0.999999999797
0.999999987152
0.999999999134
0.999999997685
0.999999999778
0.999999977964
0.999999999779
0.999999999973
0.999999978475
0.999999989473
0.999999999968
0.999999999993
0.999999999993
0.999999994602
0.999999999577
0.99999999811
0.999999981053
0.99999999413
0.999999993687
0.999999988069
0.999999997188
0.999999991131
0.999999991623
0.999999984994
0.99999999896
0.999999999538
0.999999997996
0.999999998829
0.99999999446
0.999999985533
0.999999981929
0.999999990189
0.999999998212
0.999999998455
0.999999999993
0.999999999991
0.999999999996
0.99999999976
0.99999999997
0.999999997342
0.999999999771
0.999999991406
0.99999998496
0.999999999403
0.999999998936
0.999999978254
0.999999994996
0.999999980983
0.999999979547
0.999999987038
0.999999974835
0.999999999278
0.99999999581
0.999999998519
0.999999999151
0.999999987456
0.999999994857
0.999999989195
0.999999991549
0.999999984514
0.999999999756
0.999999999736
0.999999986805
0.999999996768
0.999999999766
0.999999999321
0.999999999984
0.999999999994
0.99999999997
0.999999999754
0.999999998987
0.999999999891
0.999999999996
0.999999995957
0.999999999998
0.999999998853
0.999999998906
0.999999999515
0.999999999554
0.999999999844
0.999999993008
0.999999997075
0.999999999991
0.999999999963
0.999999999986
0.999999972574
0.999999976336
0.999999964357
0.999999982075
0.99999999992
0.999999999138
0.999999996769
0.999999999986
0.999999999868
0.999999989622
0.999999995234
0.999999999993
0.999999999891
0.99999999499
0.999999995356
0.999999995259
0.999999999018
0.999999991858
0.999999996304
0.999999997975
0.999999996089
0.999999999929
0.999999999968
0.999999999319
0.999999999749
0.99999999979
0.999999999193
0.999999997555
0.999999999999
1
0.999999990888
0.999999996851
0.999999999345
0.999999999942
0.999999995431
0.999999996389
0.999999999885
0.999999999449
0.999999999492
0.999999996886
0.99999999587
0.999999992377
0.999999992092
0.999999999007
0.999999999277
0.999999999749
0.999999999999
0.999999995391
0.999999996273
0.999999997726
0.999999998357
0.999999999994
0.999999993259
0.999999999837
0.99999999972
0.999999999951
0.999999999945
0.99999999995
0.999999999993
0.999999999952
0.999999999995
0.999999999991
0.999999999935
0.999999997737
0.999999996217
0.999999999981
0.999999997353
0.999999999999
0.999999999999
0.999999992545
0.999999996248
0.99999999976
0.999999999636
0.999999999231
0.999999999737
0.999999996806
0.999999986895
0.999999994072
0.999999998752
0.999999999949
0.999999999959
0.999999993552
0.99999998666
0.999999998903
0.999999998651
0.999999998329
0.999999999432
0.999999994988
0.999999993219
0.999999999963
0.999999999933
0.999999999999
0.999999999998
0.999999999994
0.999999999868
0.999999994337
0.999999995017
0.999999999983
0.999999997951
0.999999999996
0.999999998604
0.999999998268
0.999999999999
1
0.99999999991
0.999999996123
0.999999999229
0.999999988338
0.999999992786
0.99999999994
0.999999999959
0.999999999994
0.99999999996
0.999999999999
0.999999999993
1
0.99999999611
0.999999999895
0.999999999983
0.999999999999
0.999999991748
0.999999995362
0.999999996102
0.999999990492
0.999999998212
0.999999997971
0.999999999994
0.999999999995
0.999999991256
0.999999994374
0.999999999995
0.999999999999
0.999999999736
0.999999999711
0.999999999987
0.999999999992
0.999999999967
0.999999999966
0.999999999741
0.999999999946
0.999999999142
0.999999999981
0.999999999999
0.999999999457
0.999999999991
0.999999999747
0.999999999978
1
1
1
1
0.99999999807
0.999999999263
0.999999998899
0.999999999948
1
0.99999999976
0.999999999989
0.999999998738
0.999999999785
0.99999999968
0.999999999108
0.999999999153
0.999999999556
0.999999997691
0.999999999207
0.999999999654
0.999999999179
0.999999999425
0.999999999989
0.999999999109
0.999999998564
1
0.99999999999
0.999999999999
0.999999999979
0.999999999892
0.999999999807
0.999999999941
0.99999999875
0.999999999996
0.999999999907
0.999999998521
0.999999999999
0.999999999999
1
0.999999999999
0.99999999754
0.999999998916
0.999999998921
0.999999999214
0.99999999834
0.999999999677
0.99999999749
0.999999998997
0.999999995795
0.999999997865
0.99999999754
0.999999999416
0.999999999723
0.999999997832
0.999999998453
0.999999997882
0.999999999994
0.999999999991
0.99999999994
0.999999998282
0.999999997295
0.999999996956
0.99999999939
0.999999998908
0.999999999788
0.999999999999
0.9999999998
0.999999999926
0.999999999999
0.999999999998
0.99999999999
0.999999999998
0.999999999963
0.999999999375
0.999999998517
0.999999999978
0.999999999908
0.999999998399
0.999999999689
0.999999999673
0.999999999585
1
0.999999999941
0.999999999999
1
0.999999999991
0.999999999874
0.99999999999
1
1
0.999999999865
0.999999999959
0.999999999217
0.999999999834
0.999999999993
0.999999999999
0.999999997894
0.999999999999
0.999999999999
0.999999999998
0.999999997752
0.999999997838
0.99999999895
1
1
1
1
0.999999998763
0.99999999991
0.999999999799
0.999999999999
0.999999999279
0.999999999986
0.999999999711
1
1
0.999999999944
0.999999999883
1
1
1
1
0.999999999633
0.999999999989
0.999999999998
0.999999999998
1
0.999999999998
0.9999999998
0.999999999995
0.999999999906
0.999999999997
0.999999999997
0.999999999956
0.999999999287
0.999999999917
1
0.999999999477
0.999999999975
0.999999999997
0.999999999982
0.999999999996
0.999999999862
0.999999999995
0.999999999862
0.999999999282
0.999999999988
0.999999999728
0.999999999818
0.999999999948
0.999999999984
0.999999999988
1
0.999999999998
0.999999999723
0.999999999885
1
1
1
1
1
1
0.999999999983
0.99999999995
0.999999998762
0.999999999999
0.99999999971
1
0.999999999933
0.99999999974
0.99999999962
0.999999999138
0.999999999996
0.999999999989
0.999999999525
0.999999999703
0.999999999859
0.999999999489
0.999999999988
0.999999999466
0.99999999964
0.99999999924
1
0.999999999412
0.999999999544
0.999999999804
0.999999999497
0.999999999313
0.99999999971
1
0.999999999999
0.999999999998
0.99999999998
0.999999999843
0.999999999932
1
0.999999999989
0.999999999982
1
0.999999999754
1
1
0.999999999643
0.999999999365
1
0.999999999999
1
0.999999999931
0.999999999998
0.999999998544
0.999999999239
0.999999999889
0.999999999946
0.999999999947
0.999999999379
0.999999999956
0.999999999756
0.99999999974
0.999999998999
0.99999999988
0.999999999668
0.999999999457
0.999999999972
0.999999999905
1
0.999999999932
1
0.999999999354
1
1
1
0.999999999998
1
1
1
1
1
1
1
1
1
1
0.999999999908
0.999999999997
0.999999999964
0.999999999963
0.999999999988
1
0.999999999551
0.999999999704
0.999999999991
0.999999999856
1
0.999999999999
0.999999999999
0.999999999989
0.999999999958
1
1
1
0.999999999998
0.999999999829
0.999999999984
0.99999999999
0.999999999994
0.999999999998
0.999999999998
1
1
0.999999999958
0.999999999901
1
1
1
0.999999999999
0.999999999954
1
0.999999999995
0.999999999943
0.999999999902
0.999999999989
0.99999999998
1
0.999999999882
0.999999999991
0.999999999994
0.99999999991
0.999999999798
0.999999999995
0.999999999911
0.999999999809
0.999999999998
0.999999999927
1
0.999999999999
1
1
0.999999999993
0.999999999846
0.999999999998
0.999999999828
1
1
1
1
1
1
1
1
0.999999999921
1
0.999999999782
0.999999999861
0.999999999968
0.999999999957
1
1
0.99999999993
0.999999999945
0.999999999809
0.999999999807
1
0.999999999999
0.999999999717
0.999999999775
0.999999999892
0.999999999906
0.999999999998
0.999999999912
1
1
0.999999999999
0.999999999881
0.999999999864
0.999999999976
0.999999999974
1
1
1
1
1
0.999999999996
0.999999999999
0.999999999973
1
1
0.999999999985
0.999999999777
0.999999999931
1
0.999999999858
0.999999999902
0.999999999991
0.999999999969
0.999999999956
1
0.99999999995
0.999999999986
0.999999999951
0.999999999999
0.999999999998
0.99999999999
0.999999999995
1
1
0.999999999979
0.999999999777
0.999999999986
0.999999999987
0.999999999938
0.999999999836
1
1
0.999999999999
0.999999999877
1
1
0.999999999998
0.999999999939
1
1
0.999999999914
0.999999999994
0.999999999998
0.999999999984
0.999999999999
0.999999999998
1
1
1
1
1
1
1
0.999999999976
0.999999999999
0.999999999993
0.999999999999
1
1
1
0.999999999976
0.999999999961
0.999999999978
1
1
1
0.999999999958
0.999999999983
1
0.999999999931
1
0.999999999993
0.999999999968
0.999999999997
1
1
1
0.999999999996
0.999999999998
1
0.999999999984
0.999999999945
0.999999999927
0.999999999972
1
0.999999999976
1
0.999999999998
0.999999999989
1
0.999999999998
0.999999999967
0.999999999968
0.999999999999
0.999999999977
0.999999999988
0.999999999975
0.999999999945
0.999999999999
1
1
1
0.999999999998
1
0.999999999999
1
1
0.999999999942
0.999999999965
0.999999999908
1
0.999999999998
0.999999999999
0.999999999983
0.99999999992
0.999999999927
0.999999999972
0.999999999975
0.999999999963
0.999999999985
0.999999999945
0.999999999969
1
1
1
1
1
1
1
1
1
1
0.999999999991
0.999999999973
1
0.999999999983
0.999999999955
0.999999999996
0.999999999994
0.999999999967
1
1
1
0.999999999993
1
1
0.999999999992
0.999999999998
0.999999999916
0.999999999951
0.999999999975
1
1
1
1
1
0.999999999897
0.99999999997
0.99999999999
0.999999999995
0.999999999997
0.999999999995
0.99999999999
1
1
0.999999999997
0.999999999993
1
0.999999999951
0.999999999998
1
1
1
1
1
0.999999999984
1
0.999999999985
0.99999999997
1
0.999999999987
1
0.999999999997
0.999999999991
1
0.999999999999
1
0.999999999991
0.999999999986
1
1
1
1
1
1
1
1
0.999999999994
0.999999999997
1
0.999999999999
1
1
1
1
1
0.999999999995
1
0.999999999998
0.999999999998
0.999999999986
1
1
0.999999999999
1
1
0.999999999999
1
1
0.999999999994
1
1
0.999999999999
1
0.999999999988
0.999999999995
1
0.999999999994
1
0.999999999998
1
1
0.999999999999
1
1
0.999999999997
1
0.999999999999
0.999999999995
1
1
0.999999999978
0.999999999993
0.999999999995
0.999999999993
0.999999999999