/*--------------------------------*- C++ -*----------------------------------*\
| =========                 |                                                 |
| \\      /  F ield         | OpenFOAM: The Open Source CFD Toolbox           |
|  \\    /   O peration     | Version:  v2006                                 |
|   \\  /    A nd           | Website:  www.openfoam.com                      |
|    \\/     M anipulation  |                                                 |
\*---------------------------------------------------------------------------*/
FoamFile
{
    version     2.0;
    format      ascii;
    class       volScalarField;
    location    "0";
    object      T;
}
// * * * * * * * * * * * * * * * * * * * * * * * * * * * * * * * * * * * * * //

dimensions      [0 0 0 1 0 0 0];


internalField   nonuniform List<scalar> 
3280
(
0.999951013319
0.999948503186
0.999951295731
0.999957708579
0.999955130816
0.999958500195
0.999948796462
0.999952978347
0.999953173898
0.99994828442
0.999957689114
0.99995840333
0.999959713943
0.99996422593
0.999960741649
0.999960296164
0.99996057328
0.99995843235
0.999960119658
0.999963897806
0.999964007767
0.999964246353
0.999968611715
0.999973267329
0.999981448396
0.999981382411
0.999981574047
0.999969022357
0.999981729216
0.999969612182
0.999995386259
0.999995538875
0.999988239085
0.999981920938
0.999985751877
0.999988062353
0.999974945322
0.999986583712
0.999986212111
0.999978376373
0.999982214078
0.999978853094
0.999981475223
0.999981461566
0.999988087122
0.999979088924
0.999978000809
0.999988401361
0.999991910142
0.99999209263
0.999991951647
0.999991910829
0.999988368344
0.999988840329
0.999990651606
0.999988638615
0.999986626722
0.999986322648
0.999985992625
0.999993101086
0.99999155413
0.9999978088
0.999997699473
0.999997700855
0.999997729016
0.999995201307
0.999995021129
0.999996426979
0.999990238399
0.999989842923
0.999993588021
0.999993668551
0.999996522156
0.999998393419
0.999998563763
0.999998302716
0.999997351911
0.999998509656
0.999994733432
0.999997444021
0.99999347257
0.999995417068
0.999994642269
0.999995728284
0.999999752003
0.999999744153
0.999999392469
0.999999358612
0.999999747055
0.999998335158
0.999998383711
0.999999399647
0.999998389111
0.999996588637
0.999998728014
0.999999378098
0.999999151949
0.999999789018
0.999999652756
0.999999687816
0.999999933302
0.999999927656
0.9999986337
0.999999481943
0.999997790691
0.999999446434
0.999999668778
0.999999442024
0.999999935847
0.999998620433
0.999999937126
0.999999927454
0.999999962444
0.999999958611
0.99999992493
0.999999530986
0.999999133523
0.999999929778
0.999999136532
0.999998942659
0.9999999308
0.999999854802
0.999999914663
0.999999993056
0.999999993394
0.999999993769
0.999999855611
0.999999742583
0.999999573976
0.999999478069
0.999999982224
0.999999992935
0.999999911531
0.999999898843
0.999999284968
0.999999973946
0.999999999214
0.999999999224
0.999999999231
0.999999984501
0.999999992427
0.999999983803
0.999999824066
0.999999724362
0.999999919387
0.999999826886
0.999999834907
0.999999991784
0.999999997878
0.999999985739
0.999999867397
0.999999997941
0.99999999795
0.999999997984
0.999999992431
0.999999972131
0.999999996016
0.999999863745
0.999999997294
0.999999925485
0.999999992072
0.999999921394
0.999999914796
0.999999997815
0.999999990517
0.999999996138
0.999999997503
0.999999998789
0.999999998794
0.999999980629
0.999999999444
0.999999999728
0.999999999952
0.999999999727
0.999999999716
0.999999989044
0.99999999922
0.999999994143
0.999999955359
0.99999999893
0.999999999743
0.999999999947
0.999999999943
0.99999999995
0.99999999159
0.999999999877
0.999999999861
0.999999999988
0.999999999953
0.999999999947
0.999999999949
0.999999989017
0.999999998713
0.999999988857
0.99999998808
0.999999999843
0.999999999741
0.999999999953
0.999999999866
0.999999992031
0.999999981689
0.99999999991
0.999999999996
0.999999999108
0.999999995444
0.999999994371
0.999999997031
0.999999999988
0.999999999985
0.999999999988
0.999999999988
0.999999999954
0.99999999999
0.999999993835
0.999999997441
0.999999996836
0.999999998167
0.999999999991
0.99999999999
0.999999999962
0.999999999523
0.999999998049
0.999999998819
0.999999999999
0.999999997734
0.999999999999
1
1
1
0.999999999999
1
0.999999999424
0.999999998367
0.999999999997
0.999999999285
0.999999999826
0.999999999911
0.999999999925
0.999999999999
0.999999998086
0.999999997472
0.999999997075
0.999999999999
1
0.999999999998
0.999999999863
1
1
1
1
1
0.999999999591
0.999999999199
0.999999999996
0.999999999529
0.999999999547
0.999999999297
0.999999999998
0.999999999354
0.999999999558
0.999999999998
1
1
0.999999999729
1
1
1
0.999999999836
0.999999999983
0.999999999861
0.99999999992
0.999999999928
0.999999999853
0.999999999916
0.99999999987
0.999999999923
1
1
1
0.999999999987
1
0.999999999988
0.999999999774
1
1
1
1
1
0.999999999956
0.999999999998
1
1
1
1
1
1
1
1
1
1
0.999999999996
0.999999999986
0.999999999984
1
1
0.999999999952
0.999999999974
1
1
1
1
1
0.999999999939
0.999999999968
0.999999999941
0.999999999974
0.999999999998
0.999999999943
1
1
1
1
1
1
1
0.999999999989
0.999999999996
1
1
0.999999999996
1
1
1
1
1
1
0.999999999989
0.999999999994
0.999999999986
0.999999999986
1
1
1
0.999999999999
0.999999999995
1
0.999999999998
1
1
1
1
1
1
1
1
1
1
1
1
1
1
0.999999999997
1
1
1
0.999999999997
0.999999999997
1
1
1
0.999999999997
0.999999999999
0.999999999999
1
0.999999999999
1
1
1
1
1
0.999999999999
1
1
1
1
1
1
1
1
1
1
1
0.999999999999
1
0.999999999999
1
1
1
1
1
1
1
0.999999999999
1
1
1
1
0.999999999999
1
1
1
1
1
1
1
1
1
1
1
1
1
1
1
1
1
1
1
1
1
1
1
1
1
1
1
1
1
0.999999999999
1
1
1
1
1
1
1
1
1
1
1
1
1
1
1
1
1
1
1
1
1
1
1
1
1
1
1
1
1
1
1
1
1
1
1
1
1
1
1
1
1
1
1
1
1
1
1
1
1
1
1
1
1
1
1
1
1
1
1
1
1
1
1
1
1
1
1
1
1
1
1
1
1
1
1
1
1
1
1
1
1
1
1
1
1
1
1
1
1
1
1
1
1
1
1
1
1
1
1
1
1
1
1
1
1
1
1
1
1
1
1
1
1
1
1
1
1
1
1
1
1
1
1
1
1
1
1
1
1
1
1
1
1
1
1
1
1
1
1
1
1
1
1
1
1
1
1
1
1
1
1
1
1
1
1
1
1
1
1
1
1
1
1
1
1
1
1
1
1
1
1
1
1
1
1
1
1
1
1
1
1
1
1
1
1
1
1
1
1
1
1
1
1
1
1
1
1
1
1
1
1
1
1
1
1
1
1
0.999999998073
0.999946323922
0.999946496204
0.999948936671
0.999952037504
0.999951689189
0.999950735403
0.999946372704
0.999946319685
0.999949481306
0.999948804687
0.999949421985
0.999952071067
0.999951583237
0.999954601994
0.999955221715
0.999958366141
0.999967699205
0.999972796027
0.999967592329
0.999967785622
0.999967681222
0.999967011873
0.999967647312
0.99996683764
0.999955945777
0.999949021786
0.999954693688
0.999958310824
0.99995793652
0.999955818643
0.999954747986
0.999955281026
0.999954442047
0.999961661559
0.999957963623
0.999960431743
0.999960903767
0.999972701837
0.99996425508
0.999964438077
0.999963614063
0.999967668442
0.999962003571
0.999963317707
0.999961322434
0.999972859037
0.999963508365
0.999962056718
0.999973067712
0.999963182697
0.999973597918
0.999983207945
0.999977138746
0.999972424437
0.999972594899
0.99997325678
0.999969457866
0.999971594258
0.999973190726
0.999977386996
0.99997715418
0.999973039619
0.999963269045
0.999969910523
0.999965464089
0.999977511119
0.999969510999
0.999966385615
0.999977762429
0.999982919388
0.999977336591
0.99997740767
0.999973198478
0.99997038152
0.999972951161
0.999969272654
0.999972635634
0.999985188576
0.99998488089
0.999984855436
0.999982816461
0.999985405956
0.999983133926
0.999993265549
0.999993317275
0.999995330959
0.999977671405
0.999982228258
0.999981041352
0.999980455101
0.999986573231
0.999983631543
0.999990220868
0.99999006382
0.999982575236
0.999985815624
0.999977327338
0.999988849569
0.999978811829
0.999988561446
0.999982469966
0.999978326399
0.999983862972
0.99997706356
0.999981746683
0.999977006552
0.999990290743
0.999982185606
0.999977103228
0.999974564564
0.999989606581
0.999980306147
0.999982158353
0.999986852933
0.999980882058
0.999983268477
0.999984328362
0.999993321873
0.999988612868
0.999993122918
0.999993482628
0.999987133847
0.999987880022
0.999991597572
0.999991614542
0.999993412958
0.999988588597
0.99998717976
0.999984429653
0.999984006435
0.999986561385
0.999985437775
0.99999327441
0.999990736282
0.999993286945
0.99999109607
0.999989881064
0.999995314414
0.99999098121
0.999987468988
0.999984041031
0.999987873776
0.99998765622
0.999990762076
0.999984246533
0.999980392737
0.999988540996
0.999988820927
0.999987969277
0.99998356917
0.999988103334
0.999987490644
0.999988470297
0.999989424121
0.999987558713
0.999996226307
0.999996630837
0.999995916746
0.999996529759
0.999995301493
0.999996463246
0.999994005626
0.999992086426
0.999991600113
0.999993457223
0.99999493074
0.999990730413
0.999991642565
0.999996483672
0.999992313475
0.999993210419
0.999992649219
0.999991439096
0.999989623961
0.999991894894
0.999989626133
0.99999171633
0.999989540501
0.999994059972
0.999992232391
0.999992632451
0.999992842455
0.999996568565
0.999996851719
0.9999940751
0.999990169647
0.999989349952
0.999995110454
0.999993549489
0.999994808967
0.999994608207
0.99999018011
0.999991134722
0.999996632134
0.999995134453
0.999992284422
0.999989591208
0.999995563194
0.999997932103
0.999995046551
0.999993496865
0.999995907534
0.999998991365
0.999997911863
0.99999843742
0.999999211446
0.999998005176
0.99999902326
0.999997975028
0.999997534779
0.999995744919
0.999994925431
0.999994917234
0.999997505498
0.999993557358
0.999994694806
0.999994918509
0.999996229725
0.999992463918
0.99999501278
0.999997336868
0.999997097508
0.99999400553
0.999994974035
0.999994370698
0.999993692424
0.999993671635
0.999998318751
0.999996836232
0.999991930184
0.999994428739
0.999996982427
0.999996889127
0.999998012821
0.99999710812
0.999998363999
0.999996818015
0.999996199948
0.999995647351
0.999997717255
0.999998531799
0.999999124272
0.99999841589
0.99999636305
0.999994861559
0.999993223314
0.999998407169
0.999995790798
0.999995462375
0.999998099708
0.999999928364
0.999999919543
0.999999922546
0.999999706074
0.999999604894
0.999998966274
0.999995092618
0.999999031928
0.999999560916
0.99999950013
0.999996879779
0.99999641932
0.999997447196
0.999997333738
0.999996322148
0.999997162151
0.999995767464
0.999998462147
0.999997739461
0.999998877047
0.999999293107
0.999999132141
0.9999990219
0.999998831458
0.999998466542
0.999999509051
0.999998859295
0.999996237952
0.999999507605
0.999999343209
0.999996044956
0.999998312921
0.999997699451
0.999996744906
0.999997518708
0.999997467788
0.999995469855
0.999996217897
0.999996756849
0.999998048098
0.999997808642
0.999996430297
0.99999777238
0.999998533462
0.999996992269
0.99999912756
0.999998469868
0.99999912569
0.999999540337
0.999998034208
0.999997400542
0.999999474835
0.999999537616
0.999998991996
0.999999101455
0.99999863428
0.999998183121
0.999999071659
0.999999604714
0.999998951471
0.999997604202
0.999999316496
0.999997015773
0.999996626347
0.999999978491
0.999999960919
0.999999959933
0.999999979867
0.999999832928
0.999999835108
0.999999745395
0.999999808991
0.999998066904
0.999999106328
0.99999858281
0.999999848683
0.999999755316
0.999999013923
0.999999939478
0.99999979825
0.999999835661
0.999998516091
0.999998771038
0.999998767313
0.999999650923
0.999999675866
0.99999937887
0.999999694142
0.999998499124
0.999999357829
0.99999934527
0.999999586248
0.999998710853
0.999998483005
0.999999680321
0.99999881446
0.999998029133
0.999998701314
0.999999073486
0.99999763303
0.999999292721
0.999999308804
0.999997118085
0.999999237664
0.999999511341
0.999998508722
0.999997569361
0.999999326939
0.999997978424
0.999998109051
0.999997506664
0.99999834278
0.999997835031
0.999997901665
0.999999303704
0.999999336174
0.999998579573
0.99999785546
0.999998753072
0.999999359086
0.99999809941
0.999999886499
0.999999746003
0.999999059272
0.999998634475
0.999999649647
0.999999775692
0.999999303497
0.999998652772
0.999999813647
0.999999675945
0.999999891533
0.99999941578
0.999997159192
0.99999888284
0.99999895534
0.999999715117
0.999999895466
0.999998301799
0.999998156073
0.999998921498
0.999999706687
0.999998991192
0.999998952421
0.99999985862
0.999999894031
0.999999395298
0.999999940978
0.999999217481
0.999999308381
0.999999861701
0.999999812678
0.999999962675
0.999999686944
0.999999387137
0.99999912066
0.999999525134
0.999999978096
0.999999029057
0.999999256621
0.999999692368
0.999999439322
0.999999894461
0.999999934915
0.999999870657
0.999999215917
0.999998717659
0.999998878654
0.999999537797
0.999999215167
0.999999590771
0.999998411232
0.99999897114
0.999999427205
0.999999128977
0.99999954006
0.999999757627
0.999999909768
0.999999961834
0.999999713622
0.999999534784
0.99999979301
0.999999152489
0.99999983204
0.99999997093
0.999999721748
0.999999825262
0.999999858146
0.999999706841
0.999999688198
0.999999362639
0.999999525136
0.99999886048
0.999998557537
0.999999827825
0.999999154953
0.999999958657
0.999999675821
0.999999632644
0.999999316283
0.999999855728
0.999999272299
0.999999592566
0.999999671633
0.99999993889
0.999999696447
0.999999964839
0.999999447254
0.999999975283
0.999999342069
0.999999545138
0.999999588013
0.999999937218
0.99999974943
0.999999986433
0.999999986996
0.999999897423
0.999999972373
0.999999960166
0.999999966068
0.999999649985
0.999999973742
0.999999906756
0.999999800023
0.99999968764
0.999999724152
0.999999780295
0.999999432246
0.99999928594
0.999999733048
0.999999891092
0.999999702947
0.999999672993
0.999998819189
0.999999526307
0.999999752411
0.999999888792
0.999999729738
0.999999986651
0.999999987865
0.99999991103
0.999999957296
0.999999960006
0.999999994645
0.99999997215
0.99999977201
0.999999903218
0.999999470512
0.999999472743
0.999999631167
0.999999235451
0.999999654103
0.999999625835
0.999999986988
0.999999957294
0.999999973745
0.999999987452
0.99999993185
0.999999907455
0.999999908763
0.999999882077
0.999999965103
0.999999961063
0.999999986419
0.999999731279
0.999999947092
0.999999921859
0.999999887917
0.999999885971
0.999999888322
0.99999962177
0.999999923163
0.999999972521
0.999999624778
0.999999498509
0.999999625088
0.999999811033
0.999999209666
0.999999536652
0.99999981111
0.999999476318
0.99999952837
0.99999983552
0.999999882502
0.999999733013
0.999999723944
0.999999994646
0.999999999786
0.999999999777
0.999999999782
0.999999999497
0.999999982193
0.999999875837
0.999999924482
0.999999961989
0.999999868644
0.999999949431
0.99999999474
0.999999996255
0.999999998632
0.999999881652
0.999999866792
0.999999985246
0.999999998164
0.999999993346
0.999999833149
0.999999960984
0.999999883439
0.999999886667
0.999999988176
0.999999994792
0.99999995956
0.999999771208
0.999999657916
0.999999922157
0.999999876833
0.99999994623
0.999999861732
0.999999821544
0.999999985125
0.999999983321
0.999999996067
0.999999958851
0.99999978932
0.999999964101
0.999999812953
0.999999852247
0.999999924576
0.999999895964
0.999999900173
0.999999743959
0.999999766877
0.999999921321
0.999999728525
0.999999843622
0.999999877202
0.999999769145
0.999999789143
0.999999957897
0.999999896315
0.999999975325
0.999999982665
0.999999992642
0.999999737624
0.999999778072
0.999999861914
0.999999640015
0.999999806833
0.99999962631
0.999999995705
0.999999991772
0.999999829523
0.999999943755
0.999999976295
0.999999996657
0.999999998625
0.999999953713
0.999999961734
0.999999996029
0.999999996004
0.999999988992
0.999999998246
0.999999985617
0.999999750454
0.99999999215
0.999999995975
0.999999992528
0.999999973591
0.999999929862
0.999999996681
0.999999911976
0.999999992857
0.999999817043
0.999999887529
0.99999978126
0.999999880354
0.999999846236
0.999999989631
0.999999998456
0.999999986243
0.999999914135
0.999999997384
0.999999962294
0.999999998196
0.999999972764
0.999999992829
0.999999997962
0.999999958527
0.999999999489
0.999999998903
0.999999999471
0.999999998898
0.999999999503
0.999999999495
0.999999894352
0.999999995922
0.999999929649
0.999999949874
0.999999913044
0.999999937213
0.999999930026
0.999999957857
0.999999966959
0.999999944079
0.999999987072
0.999999953453
0.999999962269
0.999999955982
0.999999970333
0.999999936647
0.999999996017
0.999999976178
0.999999899779
0.999999970255
0.999999985972
0.999999989725
0.999999838806
0.999999926182
0.999999999787
0.999999986747
0.999999938801
0.999999983866
0.999999996208
0.9999999931
0.999999986642
0.99999998621
0.999999995793
0.999999956691
0.999999908537
0.999999858738
0.999999944005
0.999999940742
0.999999985088
0.999999986434
0.999999989132
0.99999998672
0.999999997439
0.999999948436
0.999999891358
0.999999979024
0.999999998791
0.999999999472
0.999999998981
0.999999957984
0.999999999508
0.999999998234
0.99999988821
0.999999995186
0.999999986251
0.99999998569
0.999999968355
0.999999960854
0.999999923968
0.999999954038
0.999999940606
0.999999991724
0.999999975715
0.999999947645
0.999999899666
0.999999998202
0.999999933753
0.999999761293
0.999999996697
0.999999942246
0.999999997845
0.999999886903
0.999999998719
0.999999963312
0.999999998774
0.999999858266
0.999999913964
0.999999937883
0.999999996847
0.999999967914
0.99999999868
0.99999999949
0.999999999123
0.999999994951
0.999999998945
0.999999959246
0.999999970177
0.999999964061
0.999999978941
0.999999967967
0.999999983455
0.999999922565
0.999999992461
0.999999999716
0.999999999962
0.999999999962
0.999999999882
0.999999999887
0.999999999892
0.999999999886
0.99999999989
0.999999998213
0.99999999771
0.999999933982
0.99999999974
0.999999991906
0.999999984952
0.999999997709
0.99999998519
0.999999955856
0.99999996605
0.99999998768
0.999999995414
0.999999967726
0.99999999314
0.999999983241
0.999999995589
0.999999985216
0.999999995908
0.999999998373
0.999999999744
0.999999999342
0.999999959977
0.999999984944
0.999999999753
0.999999999333
0.999999999323
0.999999999125
0.999999999353
0.999999999759
0.999999999894
0.999999975426
0.999999968367
0.999999997065
0.99999998561
0.999999984657
0.99999998185
0.999999997883
0.999999999884
0.999999999725
0.999999956591
0.999999999714
0.999999978895
0.999999918688
0.999999984883
0.999999993215
0.999999998928
0.999999997921
0.999999999886
0.999999994299
0.999999995785
0.999999988026
0.999999998507
0.999999995648
0.999999999472
0.999999952247
0.999999990573
0.999999983746
0.999999995912
0.999999994359
0.99999999977
0.99999997989
0.999999974306
0.999999962126
0.999999968972
0.999999998884
0.999999971543
0.999999996103
0.999999996642
0.999999967118
0.999999971062
0.999999972384
0.999999958377
0.999999983683
0.999999976516
0.999999974641
0.999999974102
0.999999956373
0.999999971784
0.999999999959
0.999999997273
0.999999987077
0.99999999272
0.999999987998
0.999999999047
0.999999999935
0.999999999974
0.999999999899
0.999999999945
0.999999999974
0.999999999993
0.999999999976
0.999999999993
0.999999999991
0.999999989734
0.999999988675
0.999999999992
0.999999992425
0.999999995087
0.999999993786
0.999999999877
0.999999991621
0.999999999777
0.999999991868
0.999999996284
0.999999998867
0.999999996856
0.99999997616
0.999999993744
0.999999999436
0.999999995658
0.999999995061
0.999999994604
0.999999997134
0.999999997936
0.999999987248
0.999999999945
0.999999991409
0.999999999943
0.999999999932
0.999999998802
0.99999999965
0.999999999976
0.999999993453
0.999999988205
0.999999993808
0.999999981099
0.999999996882
0.999999995956
0.999999997661
0.999999998865
0.999999998806
0.999999987931
0.999999981479
0.999999992857
0.999999996354
0.999999988503
0.999999981922
0.999999988731
0.999999998932
0.999999999618
0.99999999881
0.999999999714
0.999999998747
0.999999998795
0.999999999888
0.999999995131
0.999999999979
0.999999999979
0.999999999979
0.999999999992
0.999999998892
0.999999999042
0.999999999714
0.999999999438
0.999999993338
0.999999994106
0.999999999992
0.999999989049
0.99999999921
0.999999999758
0.999999988143
0.999999982075
0.999999990067
0.999999990833
0.999999982849
0.999999978222
0.999999984952
0.999999999993
0.999999999945
0.999999999737
0.999999997966
0.999999983807
0.999999996763
0.999999989899
0.999999985266
0.999999981399
0.99999997175
0.999999998927
0.999999999499
0.99999999999
0.999999999977
0.999999999711
0.999999995068
0.999999999444
0.999999989289
0.99999999909
0.999999996812
0.999999999998
0.999999999998
0.999999999999
0.999999999999
0.999999998961
0.999999999996
0.999999998958
0.999999993104
0.999999999992
0.999999999942
0.999999996329
0.999999999752
0.999999999339
0.999999999937
0.999999993704
0.999999999937
0.999999999992
0.99999999385
0.999999996992
0.999999999991
0.999999999998
0.999999999998
0.999999998458
0.999999999879
0.99999999946
0.999999994586
0.999999998323
0.999999998196
0.999999996591
0.999999999197
0.999999997466
0.999999997607
0.999999995713
0.999999999703
0.999999999868
0.999999999428
0.999999999666
0.999999998417
0.999999995866
0.999999994837
0.999999997197
0.999999999489
0.999999999559
0.999999999998
0.999999999998
0.999999999999
0.999999999931
0.999999999991
0.99999999924
0.999999999935
0.999999997545
0.999999995703
0.999999999829
0.999999999696
0.999999993787
0.99999999857
0.999999994567
0.999999994156
0.999999996297
0.99999999281
0.999999999794
0.999999998803
0.999999999577
0.999999999757
0.999999996416
0.999999998531
0.999999996913
0.999999997585
0.999999995575
0.99999999993
0.999999999925
0.99999999623
0.999999999077
0.999999999933
0.999999999806
0.999999999996
0.999999999998
0.999999999991
0.99999999993
0.999999999711
0.999999999969
0.999999999999
0.999999998845
0.999999999999
0.999999999672
0.999999999687
0.999999999862
0.999999999873
0.999999999956
0.999999998002
0.999999999164
0.999999999997
0.999999999989
0.999999999996
0.999999992164
0.999999993239
0.999999989816
0.999999994879
0.999999999977
0.999999999754
0.999999999077
0.999999999996
0.999999999962
0.999999997035
0.999999998638
0.999999999998
0.999999999969
0.999999998569
0.999999998673
0.999999998646
0.999999999719
0.999999997674
0.999999998944
0.999999999421
0.999999998882
0.99999999998
0.999999999991
0.999999999805
0.999999999928
0.99999999994
0.999999999769
0.999999999302
1
1
0.999999997397
0.9999999991
0.999999999813
0.999999999983
0.999999998695
0.999999998968
0.999999999967
0.999999999843
0.999999999855
0.99999999911
0.99999999882
0.999999997822
0.999999997741
0.999999999716
0.999999999794
0.999999999928
1
0.999999998683
0.999999998935
0.99999999935
0.999999999531
0.999999999998
0.999999998074
0.999999999953
0.99999999992
0.999999999986
0.999999999984
0.999999999986
0.999999999998
0.999999999986
0.999999999999
0.999999999998
0.999999999981
0.999999999353
0.999999998919
0.999999999994
0.999999999244
1
1
0.99999999787
0.999999998928
0.999999999931
0.999999999896
0.99999999978
0.999999999925
0.999999999087
0.999999996256
0.999999998306
0.999999999643
0.999999999985
0.999999999988
0.999999998158
0.999999996189
0.999999999687
0.999999999615
0.999999999523
0.999999999838
0.999999998568
0.999999998063
0.99999999999
0.999999999981
1
0.999999999999
0.999999999998
0.999999999962
0.999999998382
0.999999998576
0.999999999995
0.999999999414
0.999999999999
0.999999999601
0.999999999505
1
1
0.999999999974
0.999999998892
0.99999999978
0.999999996668
0.999999997939
0.999999999983
0.999999999988
0.999999999998
0.999999999989
1
0.999999999998
1
0.999999998889
0.99999999997
0.999999999995
1
0.999999997642
0.999999998675
0.999999998886
0.999999997283
0.999999999489
0.99999999942
0.999999999998
0.999999999999
0.999999997502
0.999999998393
0.999999999999
1
0.999999999925
0.999999999918
0.999999999996
0.999999999998
0.99999999999
0.99999999999
0.999999999926
0.999999999985
0.999999999755
0.999999999995
1
0.999999999845
0.999999999997
0.999999999928
0.999999999994
1
1
1
1
0.999999999449
0.99999999979
0.999999999686
0.999999999985
1
0.999999999931
0.999999999997
0.99999999964
0.999999999939
0.999999999909
0.999999999745
0.999999999758
0.999999999873
0.99999999934
0.999999999773
0.999999999901
0.999999999765
0.999999999836
0.999999999997
0.999999999745
0.99999999959
1
0.999999999997
1
0.999999999994
0.999999999969
0.999999999945
0.999999999983
0.999999999643
0.999999999999
0.999999999973
0.999999999577
1
1
1
1
0.999999999297
0.99999999969
0.999999999692
0.999999999775
0.999999999526
0.999999999908
0.999999999283
0.999999999713
0.999999998799
0.99999999939
0.999999999297
0.999999999833
0.999999999921
0.999999999381
0.999999999558
0.999999999395
0.999999999998
0.999999999997
0.999999999983
0.999999999509
0.999999999227
0.99999999913
0.999999999826
0.999999999688
0.999999999939
1
0.999999999943
0.999999999979
1
0.999999999999
0.999999999997
0.999999999999
0.999999999989
0.999999999822
0.999999999576
0.999999999994
0.999999999974
0.999999999543
0.999999999911
0.999999999906
0.999999999881
1
0.999999999983
1
1
0.999999999997
0.999999999964
0.999999999997
1
1
0.999999999961
0.999999999988
0.999999999776
0.999999999953
0.999999999998
1
0.999999999398
1
1
1
0.999999999358
0.999999999382
0.9999999997
1
1
1
1
0.999999999647
0.999999999974
0.999999999943
1
0.999999999794
0.999999999996
0.999999999917
1
1
0.999999999984
0.999999999966
1
1
1
1
0.999999999895
0.999999999997
0.999999999999
0.999999999999
1
0.999999999999
0.999999999943
0.999999999999
0.999999999973
0.999999999999
0.999999999999
0.999999999988
0.999999999796
0.999999999976
1
0.999999999851
0.999999999993
0.999999999999
0.999999999995
0.999999999999
0.999999999961
0.999999999999
0.999999999961
0.999999999795
0.999999999997
0.999999999922
0.999999999948
0.999999999985
0.999999999995
0.999999999997
1
0.999999999999
0.999999999921
0.999999999967
1
1
1
1
1
1
0.999999999995
0.999999999986
0.999999999646
1
0.999999999917
1
0.999999999981
0.999999999926
0.999999999891
0.999999999754
0.999999999999
0.999999999997
0.999999999864
0.999999999915
0.99999999996
0.999999999854
0.999999999997
0.999999999848
0.999999999897
0.999999999783
1
0.999999999832
0.99999999987
0.999999999944
0.999999999856
0.999999999804
0.999999999917
1
1
0.999999999999
0.999999999994
0.999999999955
0.999999999981
1
0.999999999997
0.999999999995
1
0.99999999993
1
1
0.999999999898
0.999999999818
1
1
1
0.99999999998
0.999999999999
0.999999999584
0.999999999783
0.999999999968
0.999999999985
0.999999999985
0.999999999823
0.999999999987
0.99999999993
0.999999999926
0.999999999714
0.999999999966
0.999999999905
0.999999999845
0.999999999992
0.999999999973
1
0.999999999981
1
0.999999999815
1
1
1
1
1
1
1
1
1
1
1
1
1
1
0.999999999974
0.999999999999
0.99999999999
0.999999999989
0.999999999996
1
0.999999999872
0.999999999916
0.999999999997
0.999999999959
1
1
1
0.999999999997
0.999999999988
1
1
1
0.999999999999
0.999999999951
0.999999999995
0.999999999997
0.999999999998
0.999999999999
0.999999999999
1
1
0.999999999988
0.999999999972
1
1
1
1
0.999999999987
1
0.999999999999
0.999999999984
0.999999999972
0.999999999997
0.999999999994
1
0.999999999966
0.999999999998
0.999999999998
0.999999999974
0.999999999942
0.999999999999
0.999999999975
0.999999999945
0.999999999999
0.999999999979
1
1
1
1
0.999999999998
0.999999999956
0.999999999999
0.999999999951
1
1
1
1
1
1
1
1
0.999999999978
1
0.999999999938
0.99999999996
0.999999999991
0.999999999988
1
1
0.99999999998
0.999999999984
0.999999999945
0.999999999945
1
1
0.999999999919
0.999999999936
0.999999999969
0.999999999973
0.999999999999
0.999999999975
1
1
1
0.999999999966
0.999999999961
0.999999999993
0.999999999993
1
1
1
1
1
0.999999999999
1
0.999999999992
1
1
0.999999999996
0.999999999936
0.99999999998
1
0.999999999959
0.999999999972
0.999999999997
0.999999999991
0.999999999987
1
0.999999999986
0.999999999996
0.999999999986
1
0.999999999999
0.999999999997
0.999999999999
1
1
0.999999999994
0.999999999936
0.999999999996
0.999999999996
0.999999999982
0.999999999953
1
1
1
0.999999999965
1
1
0.999999999999
0.999999999983
1
1
0.999999999975
0.999999999998
0.999999999999
0.999999999996
1
0.999999999999
1
1
1
1
1
1
1
0.999999999993
1
0.999999999998
1
1
1
1
0.999999999993
0.999999999989
0.999999999994
1
1
1
0.999999999988
0.999999999995
1
0.99999999998
1
0.999999999998
0.999999999991
0.999999999999
1
1
1
0.999999999999
0.999999999999
1
0.999999999995
0.999999999984
0.999999999979
0.999999999992
1
0.999999999993
1
1
0.999999999997
1
0.999999999999
0.999999999991
0.999999999991
1
0.999999999993
0.999999999997
0.999999999993
0.999999999984
1
1
1
1
0.999999999999
1
1
1
1
0.999999999983
0.99999999999
0.999999999974
1
1
1
0.999999999995
0.999999999977
0.999999999979
0.999999999992
0.999999999993
0.999999999989
0.999999999996
0.999999999984
0.999999999991
1
1
1
1
1
1
1
1
1
1
0.999999999998
0.999999999992
1
0.999999999995
0.999999999987
0.999999999999
0.999999999998
0.99999999999
1
1
1
0.999999999998
1
1
0.999999999998
0.999999999999
0.999999999976
0.999999999986
0.999999999993
1
1
1
1
1
0.999999999971
0.999999999991
0.999999999997
0.999999999999
0.999999999999
0.999999999999
0.999999999997
1
1
0.999999999999
0.999999999998
1
0.999999999986
0.999999999999
1
1
1
1
1
0.999999999995
1
0.999999999996
0.999999999991
1
0.999999999996
1
0.999999999999
0.999999999997
1
1
1
0.999999999997
0.999999999996
1
1
1
1
1
1
1
1
0.999999999998
0.999999999999
1
1
1
1
1
1
1
0.999999999998
1
0.999999999999
0.999999999999
0.999999999996
1
1
1
1
1
1
1
1
0.999999999998
1
1
1
1
0.999999999997
0.999999999999
1
0.999999999998
1
0.999999999999
1
1
1
1
1
0.999999999999
1
1
0.999999999999
1
1
0.999999999994
0.999999999998
0.999999999999
0.999999999998
1
0.999999999999
1
0.999999999996
0.999999999997
1
0.999999999998
0.999999999999
1
1
1
1
1
0.999999999997
0.999999999994
0.999999999992
1
1
0.999999999998
1
1
1
1
1
1
1
1
1
1
1
0.999999999999
1
1
1
1
0.999999999998
1
0.999999999999
1
0.999999999998
1
1
1
1
1
1
0.999999999999
1
1
0.999999999999
1
0.999999999997
0.999999999998
1
0.999999999994
0.999999999998
0.999999999998
1
1
0.999999999996
0.999999999997
0.999999999994
0.999999999998
1
1
1
1
0.999999999994
1
1
1
1
1
1
1
1
1
1
1
1
1
0.999999999999
1
1
1
1
0.999999999999
0.999999999999
1
1
1
1
1
1
0.999999999999
1
1
1
1
1
1
0.999999999998
1
1
0.999999999999
1
1
1
1
1
1
1
1
1
1
1
0.999999999999
0.999999999999
1
1
1
1
1
1
1
1
1
1
1
1
0.999999999999
1
1
1
1
1
1
1
1
1
1
0.999999999998
1
1
1
1
1
1
1
1
1
1
1
1
1
1
1
1
0.999999999999
0.999999999999
1
1
0.999999999998
1
1
1
1
1
1
1
0.999999999999
1
0.999999999999
0.999999999998
1
1
1
1
0.999999999997
1
1
1
0.999999999999
1
1
1
1
1
1
1
1
1
1
1
1
1
1
1
1
1
1
0.999999999998