/*--------------------------------*- C++ -*----------------------------------*\
| =========                 |                                                 |
| \\      /  F ield         | OpenFOAM: The Open Source CFD Toolbox           |
|  \\    /   O peration     | Version:  v2006                                 |
|   \\  /    A nd           | Website:  www.openfoam.com                      |
|    \\/     M anipulation  |                                                 |
\*---------------------------------------------------------------------------*/
FoamFile
{
    version     2.0;
    format      ascii;
    class       volVectorField;
    location    "0";
    object      U;
}
// * * * * * * * * * * * * * * * * * * * * * * * * * * * * * * * * * * * * * //

dimensions      [0 1 -1 0 0 0 0];


internalField   nonuniform List<vector> 
3280
(
(0.00528225059602 -0.00279466086111 0)
(-0.0039621455898 0.00195872503449 0)
(-0.00288901170321 0.00539726641351 0)
(-0.00405303865682 -0.00760891493905 0)
(0.00711183446347 0.00311416629972 0)
(-0.00778471143431 0.00422100876141 0)
(-0.00423992651503 -0.00186903678038 0)
(-0.000132930550647 0.00690888635836 0)
(0.00070621056631 -0.00695834577603 0)
(0.0039426864752 0.00159353857092 0)
(0.00407622476681 0.00758980060688 0)
(0.00784449891355 -0.00404807631745 0)
(-0.00910629153343 0.00125231417071 0)
(-0.00733120582934 0.00714265669153 0)
(0.00938003092817 0.00120466856224 0)
(-0.00129827509054 -0.00925368524355 0)
(-0.00168977871787 0.00926195166076 0)
(-0.00446211209413 0.00762635382197 0)
(0.00164767860041 0.00915159574053 0)
(0.00740084135121 -0.00697467229246 0)
(0.00692200604105 0.00748048241123 0)
(-0.00699193904313 -0.00748063982971 0)
(0.0109637978526 -0.00066455781782 0)
(-0.00989609898903 -0.00590349600157 0)
(-0.00741474902222 -0.0091975112226 0)
(-0.00898412361464 0.007674120732 0)
(0.00901045833034 -0.00763644381771 0)
(-0.0106250517934 0.00300515679413 0)
(0.00768414693281 0.00896459318138 0)
(-0.00334653629956 0.0106061142507 0)
(-0.00599340181083 -0.00661172054253 0)
(-0.00651341237524 0.00596883547374 0)
(0.00880480900826 -0.00696182346361 0)
(0.0103170989353 -0.00573054403087 0)
(-0.00927933353893 -0.00688502420938 0)
(-0.00683222470754 -0.00894201994147 0)
(-0.00131965477003 -0.0115789884823 0)
(0.00682306361125 -0.00920913822237 0)
(0.00930938748476 0.00676019463275 0)
(-0.00407078474223 -0.0110873101869 0)
(0.00576689788843 0.0102859469571 0)
(0.00378317164745 0.0111986909498 0)
(-0.0103600158382 0.00567701853599 0)
(0.00573006639568 -0.0103311225852 0)
(-0.0088837406379 0.00690134398351 0)
(-0.0042853728813 0.0110200466363 0)
(0.011154846727 -0.00385244256807 0)
(-0.00544961434762 0.00978174723202 0)
(0.00743988296742 -0.00724526598051 0)
(-0.00729306933808 0.00731345113708 0)
(-0.00725833510109 -0.00740936501527 0)
(0.00727101169912 0.00741443010621 0)
(0.00695964138855 0.00877894162033 0)
(0.00549120650991 0.0096692852967 0)
(0.00912822373916 0.00564271468255 0)
(0.00973362437614 -0.0054512201497 0)
(0.0107744602787 0.00389265751286 0)
(0.0031019145741 0.0110658146642 0)
(-0.004249691226 -0.0107174686022 0)
(-0.00865676329509 0.00497165512778 0)
(-0.00412013752401 -0.00964733054161 0)
(-0.00533444045724 0.00455869669353 0)
(0.0053333281482 -0.00473987959037 0)
(0.00477876434892 0.00529653996172 0)
(-0.0046078303399 -0.00540650929369 0)
(0.00545643385213 -0.00719274742416 0)
(0.00732056360028 0.00544920972132 0)
(-0.00659919990125 -0.004951168592 0)
(-0.0100624520549 -0.00400596579868 0)
(0.00158429064316 -0.0108037188086 0)
(0.00844379409733 -0.00496079059499 0)
(0.00500442007931 0.00837963626011 0)
(-0.00416161197427 -0.00704190982447 0)
(0.00407150283851 -0.00479716897229 0)
(-0.00386087868532 0.00464890526191 0)
(-0.0048912085014 -0.00415317924185 0)
(0.00436698570343 0.0060765692498 0)
(0.00474176078414 0.00387614790763 0)
(0.00183189880891 0.00909235675424 0)
(0.00601139234382 -0.00430626350409 0)
(0.000549731085751 0.00982428946239 0)
(-0.00359775533441 -0.00814708236408 0)
(0.00182196303312 -0.00914073065156 0)
(-0.00421842798361 0.00763147095713 0)
(-0.00214647781512 0.00217859455769 0)
(-0.00215581563428 -0.00222404885075 0)
(-0.0031032509226 -0.00307813652164 0)
(0.00315336933998 -0.00315953389812 0)
(-0.00224235307771 0.00211592542233 0)
(0.00553233919237 -0.00316289213461 0)
(-0.00549030252125 0.00310123026064 0)
(-0.00310920170513 0.00304337824629 0)
(-0.00325023231045 0.00539462022804 0)
(-0.00773481561642 -0.00250237521439 0)
(0.00326557863597 0.00477067136634 0)
(0.00313144438932 0.00310633892902 0)
(0.00402518144813 0.00291331293721 0)
(-0.00182949623581 0.00220207561999 0)
(-0.00255556728317 0.00239751504532 0)
(-0.00261446815761 0.00210625013939 0)
(0.00122625634419 0.00127469019885 0)
(0.00131415832195 -0.00127484508792 0)
(0.00156900191763 0.00572327994701 0)
(-0.00339272252342 -0.00231481560132 0)
(0.00702668568675 0.000378605037377 0)
(0.00239762368581 -0.00346695598754 0)
(0.00267372356928 0.00216174152026 0)
(-0.00218469040027 0.00362023230489 0)
(-0.00120589523961 0.00125397892068 0)
(-0.00240921062157 0.00544629142142 0)
(0.00129758599471 0.00113640835776 0)
(-0.00136739692398 -0.00122082888968 0)
(0.000910996077759 0.00104049486071 0)
(0.00107599898082 -0.000960116676792 0)
(0.00122949133214 -0.00139551478637 0)
(-0.00165158755256 0.003587569002 0)
(-0.00490361534681 0.00102476154955 0)
(-0.00112383359527 0.00141616818163 0)
(-0.00170109154279 -0.0047048643259 0)
(0.000513977138295 -0.00537461374952 0)
(-0.00133803692415 0.00119904807326 0)
(0.00212635482698 -0.0012242970603 0)
(-0.00107640275776 0.00164225871043 0)
(0.000451684408891 -0.000481274137848 0)
(-0.000467704698853 -0.000444970343424 0)
(0.000459406159249 0.000429652270789 0)
(0.00121999689436 0.00212226543478 0)
(-0.00119286396073 -0.00286685106867 0)
(0.000514288325976 -0.00376705982202 0)
(1.57286509066e-05 0.00411917623478 0)
(0.000725340830655 0.000687150549334 0)
(-0.000484544786552 0.000455640932037 0)
(0.00110105108339 -0.00166209511496 0)
(-0.00116555371354 -0.00175827589331 0)
(0.0046540537096 0.000101450235126 0)
(-0.000893309210226 0.000771660022383 0)
(-0.000175341971804 -0.000174708809252 0)
(0.000175418113733 0.000172661527782 0)
(0.000172168035726 -0.000174451688733 0)
(0.000749414416147 -0.000568898687214 0)
(0.000530325338792 0.000435037383709 0)
(-0.000585019853435 -0.000760189775695 0)
(-0.000776806626067 -0.00254064384169 0)
(0.00318388447486 -0.000234988092265 0)
(-0.000765043829075 -0.001757571853 0)
(-0.00260433306347 0.000426818516322 0)
(0.00065333308481 0.00250399900387 0)
(-0.000456224456358 0.000545549744871 0)
(-0.000286070398001 0.000262434323409 0)
(-0.00072692041484 0.00054264660452 0)
(-0.00220224404798 -0.000855783149117 0)
(0.000283946605573 0.00025708564526 0)
(0.000257016064854 -0.000282972438252 0)
(-0.000278998132194 -0.000257126258746 0)
(-0.000529297141054 -0.000436043118882 0)
(0.000675574525071 -0.00101045128288 0)
(0.000306897319073 -0.000413842291518 0)
(0.00238948138768 2.13943712998e-05 0)
(0.000272891666422 0.000336356594302 0)
(0.000222380684066 -0.00184064015228 0)
(0.000383144058336 -0.000585863550649 0)
(0.000363146743786 0.00186141268102 0)
(0.00194800877407 -0.000236363724755 0)
(-0.000305430788698 -0.000247928840939 0)
(-0.000649138549855 -0.000390964213868 0)
(0.000407514786664 -0.000303439968971 0)
(-0.000323272032297 0.000264606312256 0)
(-0.00019049197097 0.000233401259607 0)
(-0.000243059037781 0.000177148401121 0)
(-0.00040032005651 0.00095705808427 0)
(-0.000164597866533 -0.000132608994909 0)
(-0.0001007695585 0.000114365979837 0)
(4.96758131198e-05 -4.75353466603e-05 0)
(0.000101466402202 0.000114012682192 0)
(-0.000102884570806 -0.000116685323118 0)
(-0.000738388689951 0.000327381751024 0)
(-0.000175106428116 0.000173740233049 0)
(-0.000305809671465 -0.000530005896222 0)
(0.00148843428943 -6.27893763134e-05 0)
(0.00016821104731 -0.000229859776156 0)
(0.000111219429223 -9.84509674721e-05 0)
(-5.44724839198e-05 4.70102737755e-05 0)
(4.86793716902e-05 5.59446649678e-05 0)
(5.30897661441e-05 -4.55967671515e-05 0)
(-0.000678116847042 0.00023764632478 0)
(6.61894902758e-05 -8.24217776266e-05 0)
(8.78968196113e-05 6.90100776324e-05 0)
(2.55179599067e-05 -2.55252755289e-05 0)
(-4.93891298928e-05 -4.68263813429e-05 0)
(5.23020935554e-05 4.86717286908e-05 0)
(-4.82829761566e-05 5.12871861348e-05 0)
(-0.000795873203093 0.000142804038769 0)
(-0.000153429714855 -0.00026905812962 0)
(0.000802238823155 -0.000136360771438 0)
(-0.000805391253626 -0.000232597589974 0)
(-9.28270512731e-05 7.333178845e-05 0)
(8.7077527028e-05 -0.000120824682721 0)
(-5.12950598811e-05 -4.39562951813e-05 0)
(-8.62175674434e-05 -6.80990928779e-05 0)
(0.000209034472978 0.000669746566204 0)
(-6.75278453585e-05 -0.00100994325064 0)
(-5.32245938569e-05 7.4486491069e-05 0)
(1.42985608947e-05 1.45173400348e-05 0)
(-0.000237973181979 0.000110243909781 0)
(6.96824015595e-05 -0.000542577174205 0)
(-8.30854714232e-05 -0.000595421384829 0)
(-0.000431972507438 -0.000131661892393 0)
(-2.53975931047e-05 -2.52699733889e-05 0)
(2.82298734436e-05 2.77835421941e-05 0)
(-2.55792825757e-05 2.57745777998e-05 0)
(-2.33540576292e-05 -2.74865686801e-05 0)
(-5.41769990677e-05 -3.97291289787e-05 0)
(2.17069637244e-05 2.55803476607e-05 0)
(-0.000624464256423 4.44264912684e-05 0)
(-0.000147192960533 0.0003959574932 0)
(0.000445688837285 -0.000131398413902 0)
(0.000112810257117 0.000345456734233 0)
(2.00005136117e-05 -2.39209222013e-05 0)
(-2.46955685078e-05 2.09123728464e-05 0)
(-3.62861409833e-05 -4.9513348129e-05 0)
(-0.000174488670977 -9.17843648173e-05 0)
(-0.000350916530098 0.000128884921894 0)
(0.000288470824621 7.41164512589e-05 0)
(-9.03922011817e-06 -8.04704626749e-06 0)
(1.77755927961e-06 -0.00039989577253 0)
(-7.49480185803e-06 8.47101222193e-06 0)
(-3.84847145475e-06 4.07251268105e-06 0)
(4.39131029667e-06 4.1744858762e-06 0)
(-4.43111011657e-06 -4.20843430898e-06 0)
(9.38512619972e-06 8.35579122253e-06 0)
(4.3567894552e-06 -4.14235984812e-06 0)
(-7.68764639033e-05 0.000200739445919 0)
(-3.28392808367e-05 -0.00034335548031 0)
(-1.16869103562e-05 1.51759556593e-05 0)
(0.00022424139978 -7.69701446966e-05 0)
(-0.000112616644641 5.24092086573e-05 0)
(-8.05349485496e-05 -4.23517784307e-05 0)
(7.33158850855e-05 4.14502654134e-05 0)
(8.50129184715e-06 -7.55565439727e-06 0)
(-5.6510598336e-05 0.000366231438125 0)
(-0.000416581070875 5.38982854017e-05 0)
(0.000447826482733 -2.5777921292e-05 0)
(6.88488862168e-06 7.72281886814e-06 0)
(1.80212975931e-06 1.66383391124e-06 0)
(-8.28678259182e-06 -1.09852973526e-05 0)
(0.000104950673176 -3.69262996257e-05 0)
(-1.85975623501e-06 -1.71931787281e-06 0)
(-1.58151968565e-06 1.71321285976e-06 0)
(-1.22625387707e-06 -1.30906787171e-06 0)
(1.21519473896e-06 1.2869436717e-06 0)
(-4.85378746275e-06 6.15138266223e-06 0)
(-3.31066121493e-05 0.000180696424986 0)
(-2.2639000275e-05 0.000248683803877 0)
(-1.15722414449e-05 -1.80506294679e-05 0)
(-0.000193210912961 3.35092650349e-05 0)
(0.00018869856988 -3.86658876235e-05 0)
(-0.000235256634922 -1.13979776988e-06 0)
(8.7597139189e-06 -1.23664160544e-05 0)
(0.000225017227945 -2.47952597639e-05 0)
(0.00018763397413 3.24714364312e-05 0)
(1.18281635267e-05 8.43931769737e-06 0)
(1.15324782285e-06 -1.21636313084e-06 0)
(6.16966329937e-06 -4.9318773167e-06 0)
(0.000152054183907 -7.83771389058e-06 0)
(-3.38913333705e-06 -4.55913592899e-06 0)
(3.00764324429e-07 2.8764622492e-07 0)
(-6.37486749836e-07 6.38834993602e-07 0)
(-0.00012062235156 2.99902767662e-06 0)
(3.92815900646e-05 -1.6565371136e-05 0)
(2.1202183151e-05 -0.000109829133366 0)
(-2.79995420279e-05 -8.18319248628e-05 0)
(1.98393449285e-05 8.02459954779e-05 0)
(-0.000111860173633 -2.5831432137e-05 0)
(8.49704830872e-05 2.46619354938e-05 0)
(0.000107346620105 -1.45642468164e-05 0)
(-8.06108117578e-05 2.74444999675e-05 0)
(1.49556829863e-06 -1.73868103879e-06 0)
(1.42417577875e-06 1.66395323993e-06 0)
(-1.12125176529e-06 -9.79051680161e-07 0)
(-1.65213922347e-05 3.35717483222e-05 0)
(-3.66281920409e-06 5.30910979436e-06 0)
(1.61764194742e-05 -3.13246074437e-05 0)
(-0.000139106043738 1.54100889801e-05 0)
(-8.18642310265e-07 9.30417399269e-07 0)
(-2.84378542868e-07 -2.71635324503e-07 0)
(5.81575660282e-08 -5.80679751927e-08 0)
(5.56579258942e-08 5.55355414822e-08 0)
(-1.23318550792e-06 -9.74395161343e-07 0)
(-6.52060177652e-05 8.8020458504e-06 0)
(-7.32816760536e-06 1.39896532799e-05 0)
(-3.60626092869e-07 3.96210613039e-07 0)
(-1.32390921332e-07 1.25895774247e-07 0)
(-3.80962081213e-07 3.38918483292e-07 0)
(1.16277530362e-06 -9.13960113087e-07 0)
(1.10373580308e-07 1.16500733902e-07 0)
(1.27631916887e-07 -1.20002440037e-07 0)
(6.58213560089e-06 3.90625723757e-06 0)
(-1.20120161811e-06 1.60193766108e-06 0)
(-2.43464382768e-06 -1.69552007622e-06 0)
(-3.23267640459e-07 -3.59908585279e-07 0)
(-8.12496497854e-06 1.90764613898e-05 0)
(3.660357497e-05 -1.29712433342e-05 0)
(-3.95476395781e-05 1.07074094879e-05 0)
(4.58799968565e-07 -3.9624608252e-07 0)
(1.73366323937e-06 -2.45325463652e-06 0)
(6.78738437602e-05 9.36704468822e-06 0)
(-4.96597748135e-05 -1.22881950339e-05 0)
(-1.10805286691e-07 -1.16968123089e-07 0)
(-6.00379043309e-06 -3.72563868667e-06 0)
(-1.21428278084e-07 1.28619056623e-07 0)
(-1.19266701513e-07 -1.1298953441e-07 0)
(3.25450627614e-07 3.61740965442e-07 0)
(7.63510020526e-05 -6.45299386167e-06 0)
(5.52468077128e-05 1.19498997788e-05 0)
(1.00173745843e-05 -7.49239514021e-05 0)
(-1.49171004486e-05 4.91318579386e-05 0)
(6.33046966456e-06 -1.2313453461e-05 0)
(2.14719340669e-06 7.40218924413e-05 0)
(1.15190103378e-07 1.3073360796e-07 0)
(-1.11648334418e-07 -1.26633568566e-07 0)
(-1.13140117173e-06 1.67541587868e-06 0)
(1.24545643141e-07 1.17242029348e-07 0)
(-1.42461072368e-07 1.6092848065e-07 0)
(-5.57037349348e-08 -5.56234816772e-08 0)
(1.04357369731e-06 -1.63727245272e-06 0)
(-5.18575024239e-06 3.39309979646e-05 0)
(-6.17677680566e-06 1.97127396843e-05 0)
(4.03728266584e-06 -2.28002734682e-06 0)
(-1.39786545715e-07 1.23007691344e-07 0)
(6.09616107784e-06 -1.9917751907e-05 0)
(-2.82693873639e-07 -3.55805550106e-07 0)
(-2.59511751117e-07 -2.16678326575e-07 0)
(-2.12092541488e-06 -1.31864938129e-06 0)
(5.30027766829e-07 4.12823422824e-07 0)
(7.12331773953e-07 1.02982478685e-06 0)
(1.27775720957e-07 -1.35050468588e-07 0)
(5.26320200024e-06 -3.3486988901e-05 0)
(5.89975579832e-06 -2.58383724652e-05 0)
(-5.15747863465e-06 -3.78672605856e-05 0)
(3.77890732854e-05 -4.06623265586e-06 0)
(1.28991763903e-07 -1.46741059769e-07 0)
(3.9150740989e-07 -5.01114091481e-07 0)
(-1.35585774091e-07 -1.20056339141e-07 0)
(-3.6128521137e-06 7.88838739368e-06 0)
(-7.09677685156e-06 -2.2655020918e-05 0)
(-5.84999881088e-08 5.86856273993e-08 0)
(-1.28299557479e-05 -4.95164412804e-06 0)
(4.40017428607e-06 2.35140939668e-06 0)
(1.67366044986e-06 2.68842948559e-06 0)
(-4.85363916877e-08 4.25337271312e-08 0)
(4.04973784287e-08 4.6263520031e-08 0)
(8.3456444674e-08 -6.94205121703e-08 0)
(1.28533928828e-07 -1.67191279583e-07 0)
(-4.00376659739e-08 -4.54932688262e-08 0)
(7.27605983873e-09 7.05740566098e-09 0)
(7.29375268154e-09 -7.54856137477e-09 0)
(-7.16087620473e-09 7.39927123686e-09 0)
(1.86885758795e-06 -4.28134025152e-06 0)
(-2.38600092697e-06 -6.05328925856e-06 0)
(-1.87764536503e-07 2.54295657313e-07 0)
(5.40727569656e-06 -2.13845907557e-06 0)
(-1.97696894445e-05 6.9479433152e-08 0)
(4.22305615575e-07 -6.37799210899e-07 0)
(-1.88816807837e-07 -1.44692777472e-07 0)
(8.97671239605e-07 1.5846014505e-06 0)
(1.94997685253e-05 2.02067072651e-06 0)
(-1.87024891783e-06 -1.83596476325e-05 0)
(-7.57510450621e-08 9.19624983425e-08 0)
(1.84306786957e-07 -1.43073740373e-07 0)
(4.4290143924e-07 -3.02340497804e-07 0)
(-1.91061690844e-05 -3.27043153594e-06 0)
(8.82419204882e-06 3.04968100515e-06 0)
(-9.08468709462e-06 -2.64940740855e-06 0)
(-7.0139147561e-07 -1.11424611376e-06 0)
(-2.81350532462e-06 -8.75811069509e-06 0)
(9.51152321679e-08 7.94328328954e-08 0)
(2.81029274242e-07 2.3652533719e-07 0)
(-5.73047700953e-07 -3.68736390754e-07 0)
(-8.90790657913e-08 -1.13065106973e-07 0)
(-1.59472444874e-08 1.38225170702e-08 0)
(1.28740187893e-06 8.9774020003e-06 0)
(6.7967322321e-09 7.45774206907e-09 0)
(1.77142864074e-08 -1.52837661421e-08 0)
(-1.63461751075e-08 1.88241065117e-08 0)
(1.64869772389e-08 1.42675575883e-08 0)
(-7.42677574093e-09 -7.1854041074e-09 0)
(3.77700129548e-07 -6.92898750872e-07 0)
(4.69482489816e-07 2.75182658506e-07 0)
(-1.48372103939e-06 5.7922326803e-06 0)
(-5.59669034826e-08 7.64091765684e-08 0)
(-1.47307688353e-08 -1.68600156586e-08 0)
(1.38053370163e-08 1.6035548559e-08 0)
(9.97183420937e-06 -1.43585616222e-06 0)
(-5.79719589673e-06 1.52277283841e-06 0)
(1.55902463189e-06 -8.14957423346e-06 0)
(1.29424639833e-07 -1.88569648816e-07 0)
(9.89143986187e-08 1.43805794117e-07 0)
(1.29725136905e-06 -2.47770897379e-06 0)
(7.99544403802e-09 -7.28127944875e-09 0)
(-1.42648524639e-06 4.24323282773e-06 0)
(2.4051499172e-09 -2.5381517489e-09 0)
(-2.36052584432e-09 2.47451829537e-09 0)
(-1.11168761557e-05 1.38027789296e-06 0)
(-8.73332693152e-07 -2.16757901061e-06 0)
(-1.76609295463e-08 -1.52549269021e-08 0)
(1.50533936924e-08 -1.73910043838e-08 0)
(-8.0999355203e-08 -1.13393467514e-07 0)
(9.47353816059e-06 1.85152344631e-06 0)
(3.5079702622e-06 7.29952636386e-07 0)
(-4.88700722085e-09 4.17572064704e-09 0)
(-2.37951082107e-09 2.68659498727e-09 0)
(-4.84949093321e-08 7.31314510435e-08 0)
(-4.94342647663e-06 7.9235583163e-07 0)
(-6.0803336127e-07 2.89224450529e-07 0)
(1.02503435295e-09 1.02078577225e-09 0)
(3.38996423534e-07 7.11977894923e-07 0)
(1.84490698597e-06 -5.88289301904e-07 0)
(3.55431212435e-07 -8.72353720937e-07 0)
(6.49732486469e-07 -4.91674767229e-06 0)
(-2.813158859e-06 6.36512406049e-07 0)
(-4.70730686812e-06 4.2770475009e-07 0)
(2.51177597292e-09 2.3980332627e-09 0)
(-9.6269916755e-09 1.20092423465e-08 0)
(-5.2037638681e-06 1.07997763576e-07 0)
(7.02825781557e-09 5.73533858718e-09 0)
(-2.4826196023e-09 -2.36924503511e-09 0)
(3.11829457053e-09 2.77210610885e-09 0)
(-5.62580505373e-07 -1.62431178958e-06 0)
(1.82715437595e-08 -2.39946159215e-08 0)
(-3.74081010718e-07 -5.20527991665e-06 0)
(-1.03309785517e-09 -1.02862309234e-09 0)
(-2.73211765291e-09 -2.42053152443e-09 0)
(3.8752272357e-08 -5.7141019977e-08 0)
(-1.01067675766e-09 1.01358472422e-09 0)
(-2.09536970345e-06 -7.14345494342e-07 0)
(8.74088318427e-07 -3.08404911642e-06 0)
(1.06907533118e-09 -1.07390297283e-09 0)
(-1.21013807989e-05 5.8606311388e-07 0)
(-7.84047288934e-08 1.48256472418e-07 0)
(-7.20962167089e-10 8.13658715954e-10 0)
(-2.35254413199e-06 -4.09751646059e-07 0)
(8.39587136087e-10 7.41294796437e-10 0)
(-8.15687258785e-10 -7.22262241982e-10 0)
(6.45698155907e-10 -7.25644878576e-10 0)
(-1.94011936208e-08 -1.37108143496e-08 0)
(1.69917986153e-07 8.94732341632e-08 0)
(1.82416784085e-07 -9.6306657818e-08 0)
(6.07879076645e-08 -1.05594761757e-07 0)
(-1.10312138516e-10 -1.13550427084e-10 0)
(2.06619065553e-08 1.46492548543e-08 0)
(1.02285260959e-06 3.17584036195e-07 0)
(5.58763555921e-07 -2.19212293906e-07 0)
(-6.27553153898e-07 -2.32315941577e-07 0)
(-3.93293956424e-07 -1.81681370599e-06 0)
(3.99276911029e-07 -1.265315554e-06 0)
(2.52430090002e-06 -3.7296855806e-07 0)
(-3.88851354515e-10 -4.17325637511e-10 0)
(-8.64280834587e-08 -1.63923689668e-07 0)
(8.05752340851e-09 2.73516919901e-06 0)
(2.46702093173e-07 -2.86502812597e-06 0)
(-2.86361012336e-07 1.18310238842e-06 0)
(1.66064811303e-06 -3.6842741352e-07 0)
(-9.43236339468e-07 -2.86229952493e-07 0)
(1.40693124265e-07 -2.91251351465e-07 0)
(-3.92091727924e-10 3.65875362521e-10 0)
(-1.04719006734e-07 -5.96720238144e-08 0)
(3.53077839109e-07 2.28382882282e-06 0)
(-8.11211349053e-07 2.82326679376e-07 0)
(-3.87080279654e-09 -4.83177931693e-09 0)
(-1.29018949228e-08 -1.88890528275e-08 0)
(1.43768067216e-09 -1.727093674e-09 0)
(3.30171882649e-07 -1.33582011765e-06 0)
(-2.85766719985e-09 3.63190655273e-09 0)
(-1.79111821034e-07 8.96745020369e-08 0)
(-1.43834951375e-07 -2.96747013659e-07 0)
(3.78534024094e-10 4.05505992166e-10 0)
(-3.92868494566e-07 2.25024903934e-06 0)
(-2.29240256577e-10 2.60741145329e-10 0)
(-1.05783545994e-09 -1.35320697852e-09 0)
(1.81150784759e-08 -3.16115674508e-08 0)
(5.39143905322e-07 1.47984938686e-07 0)
(-1.28299559845e-06 9.31178697314e-08 0)
(1.10329697694e-10 -1.20003201817e-10 0)
(-1.17429237645e-10 -1.28191453373e-10 0)
(1.20179993502e-10 1.10348061799e-10 0)
(-2.70678384365e-11 -2.58340174411e-11 0)
(9.91105158429e-11 -1.02298255526e-10 0)
(2.55756209468e-11 2.69967978917e-11 0)
(-3.20285709166e-11 3.3657119798e-11 0)
(-2.17703531113e-09 -2.93815985097e-09 0)
(-1.55879160437e-07 -8.35400859711e-07 0)
(-1.43615345046e-07 9.8746712565e-07 0)
(8.82698448877e-07 -1.41989406822e-07 0)
(7.45000271222e-09 -1.18591956643e-08 0)
(1.7261888925e-07 -7.22969254338e-08 0)
(1.29378860686e-07 1.04567617666e-06 0)
(4.45105164971e-07 -1.40393832437e-07 0)
(1.4560165517e-09 1.86482826317e-09 0)
(1.57890442336e-09 -1.23244237002e-09 0)
(3.90383592884e-09 -2.77832149876e-09 0)
(-5.70952661416e-07 1.54925820589e-07 0)
(2.73872244425e-09 3.86522087182e-09 0)
(1.2117222767e-07 -1.11996771085e-06 0)
(1.6344764509e-07 -9.18387815552e-07 0)
(1.38598324052e-06 -1.4486166306e-07 0)
(9.26249413477e-08 -4.47127940469e-08 0)
(-1.06550026425e-08 -6.95017982993e-09 0)
(-5.51981302303e-08 -2.89694518599e-08 0)
(1.32056529867e-09 1.02881685589e-09 0)
(1.01924986527e-10 9.85735729498e-11 0)
(-2.50425971388e-10 -2.19215793637e-10 0)
(-1.12658134402e-10 -1.03936267681e-10 0)
(-5.20855990536e-08 -1.14192028277e-07 0)
(-1.03169436709e-10 1.06758296391e-10 0)
(1.042874631e-10 1.13236537865e-10 0)
(2.70218025154e-10 -2.37325574884e-10 0)
(9.00773185046e-08 4.35450538389e-08 0)
(9.33797585226e-11 1.12176343743e-10 0)
(1.05485935361e-10 -8.76284588022e-11 0)
(-1.12665877218e-08 2.22142861954e-08 0)
(-7.41500585624e-10 -1.04705496338e-09 0)
(4.08040330023e-08 1.18122904374e-07 0)
(2.76686745877e-07 6.176926204e-08 0)
(1.13710605226e-08 -2.23929180706e-08 0)
(-4.41315020806e-09 7.50322715583e-09 0)
(4.85098070497e-07 -2.9568415462e-08 0)
(7.395733224e-09 -4.35317039034e-09 0)
(1.21137494298e-07 -4.1728987576e-08 0)
(-4.15500386837e-07 4.37512752385e-08 0)
(-6.21120919851e-08 -2.79144236154e-07 0)
(3.64735691438e-09 2.29946447952e-09 0)
(-2.39208839415e-09 -3.8007420364e-09 0)
(-1.215538907e-07 4.18950264002e-08 0)
(-2.81904102483e-07 -6.28907189937e-08 0)
(-2.03118913916e-07 5.33005151677e-08 0)
(-2.70986848297e-07 6.02387271662e-08 0)
(-5.34573391805e-08 2.0114082085e-07 0)
(-3.77056419264e-09 2.37180676473e-09 0)
(4.38665160898e-09 7.45010352291e-09 0)
(5.5726011731e-08 -2.36013063058e-08 0)
(-1.6838636167e-08 3.6087606157e-08 0)
(-7.2160030401e-09 1.31789494825e-08 0)
(-2.47426451781e-10 -1.95944058754e-10 0)
(-1.01804003561e-08 -5.02010391899e-07 0)
(1.33448129285e-08 -7.31357610615e-09 0)
(5.01213639255e-07 -1.02120422671e-08 0)
(-5.68725796102e-08 -3.1361886029e-07 0)
(-1.67017188754e-07 5.07253595509e-08 0)
(-3.03758120929e-08 4.98305547065e-07 0)
(-2.06475607377e-08 -1.04238931946e-08 0)
(-3.74027677926e-10 -5.00048155364e-10 0)
(-3.4784222353e-08 1.61132659694e-08 0)
(5.29516546602e-08 -1.98898805964e-07 0)
(5.03420359139e-07 1.02105425856e-08 0)
(-5.03858727757e-08 -1.65366261777e-07 0)
(4.86386842922e-07 2.96134344746e-08 0)
(6.6361343379e-09 -1.21468289299e-08 0)
(8.23356991086e-08 3.16494392662e-08 0)
(1.87799560787e-10 -2.37062529975e-10 0)
(-1.33129158945e-08 -7.2841770653e-09 0)
(2.42418927003e-10 1.91840735892e-10 0)
(-3.57271161298e-08 -1.66569226889e-08 0)
(-1.0326650018e-10 -8.57482652799e-11 0)
(-4.07025533946e-08 -1.17816367452e-07 0)
(3.15503056457e-11 3.11877539512e-11 0)
(-1.95706187421e-10 2.47085813915e-10 0)
(3.00060695354e-11 -3.0502359632e-11 0)
(3.33274423631e-08 1.54800787913e-08 0)
(4.46340335678e-07 4.54451140819e-08 0)
(3.11850213595e-08 -8.10116892973e-08 0)
(-2.5893596495e-09 4.11544694826e-09 0)
(-4.477815761e-09 -7.60032840612e-09 0)
(-7.2160030401e-09 -1.31789494825e-08 0)
(1.01804003561e-08 -5.02010391899e-07 0)
(2.99673820083e-08 -4.89631287135e-07 0)
(-2.17713371532e-08 1.10413430176e-08 0)
(-1.97369057518e-10 -2.49696643487e-10 0)
(4.19970628303e-08 -4.14126800797e-07 0)
(-2.16270565132e-07 -5.70198556721e-08 0)
(-1.598489665e-07 -4.91470070707e-08 0)
(-1.13106716514e-08 -2.23155746571e-08 0)
(-1.66000155592e-08 -3.57890143679e-08 0)
(1.5438966649e-07 -4.67693062476e-08 0)
(2.17256337672e-07 -5.72421739243e-08 0)
(2.75962025425e-07 -6.15604112837e-08 0)
(2.25782303612e-08 1.14425584832e-08 0)
(1.33689399257e-08 7.32777176321e-09 0)
(2.26451883852e-08 -1.14774742013e-08 0)
(3.36272582907e-08 -1.56179205217e-08 0)
(7.35209826237e-09 4.33009198073e-09 0)
(-8.40730112164e-10 1.19119207891e-09 0)
(6.32301578422e-08 3.5387701687e-07 0)
(5.61148203987e-08 -3.87992807273e-07 0)
(3.68572058658e-07 5.30706614435e-08 0)
(-4.49054265348e-08 4.4324342937e-07 0)
(-5.16501841512e-08 3.66188097899e-07 0)
(-3.22936104919e-08 8.38759236633e-08 0)
(-2.44637755222e-08 5.73846751559e-08 0)
(-1.19961782546e-08 6.57910462688e-09 0)
(-9.38137567134e-11 -1.12734565426e-10 0)
(7.7472568677e-10 -1.09966702783e-09 0)
(2.51405127635e-10 -1.99096091148e-10 0)
(5.51597475264e-10 -4.1007000887e-10 0)
(7.89467561201e-11 -9.47547902945e-11 0)
(-5.7782378156e-08 2.61616842292e-07 0)
(-9.94335444419e-10 7.06397091417e-10 0)
(-3.99460239808e-10 5.32668735776e-10 0)
(-1.32948820757e-11 1.32828476822e-11 0)
(-8.34294675392e-08 3.21467825269e-08 0)
(-5.71348175636e-08 -2.16723169054e-07 0)
(2.00836311755e-07 5.27494183996e-08 0)
(-8.51009678445e-08 -3.27840454981e-08 0)
(-4.54973927722e-07 2.82572024451e-08 0)
(-5.17415457207e-07 1.08473725122e-08 0)
(-5.59944634265e-08 -2.38635584944e-08 0)
(4.97413902158e-08 1.63468281913e-07 0)
(5.72861218536e-08 2.17273459722e-07 0)
(3.94977714752e-10 -5.27226808372e-10 0)
(6.1923186817e-08 2.77666312859e-07 0)
(1.12740166642e-07 3.84820042003e-08 0)
(5.51471508827e-08 2.34750611189e-08 0)
(2.17688648263e-08 -5.1044520855e-08 0)
(-5.02010391899e-07 -1.01804003561e-08 0)
(-4.9080081971e-07 -2.99787849173e-08 0)
(4.9740467672e-10 3.71804107957e-10 0)
(9.50867325882e-11 7.91915582568e-11 0)
(-5.61885041421e-08 -3.96525537828e-07 0)
(-4.61281673093e-08 -4.53826479472e-07 0)
(-4.4208502723e-07 -4.52002865606e-08 0)
(-3.67078526765e-07 -5.27383253779e-08 0)
(3.00705708877e-08 4.94141857981e-07 0)
(1.99669501518e-10 2.52621458126e-10 0)
(-2.26128834048e-10 1.78898776612e-10 0)
(-2.93436634453e-08 -4.82326282881e-07 0)
(-1.07882053225e-09 -7.61027940098e-10 0)
(4.20806235886e-10 5.65992912796e-10 0)
(-7.49718989853e-09 -4.40661453779e-09 0)
(-3.85433078594e-09 -2.41289728844e-09 0)
(3.30182403881e-07 -5.95283240959e-08 0)
(1.02495612607e-08 5.01388382761e-07 0)
(-1.02478135762e-08 5.05838964406e-07 0)
(7.36182141432e-09 1.34348049048e-08 0)
(1.12760135996e-08 2.22850900164e-08 0)
(1.61575144979e-08 3.50203495933e-08 0)
(-5.39492503894e-10 -4.04219730874e-10 0)
(-0.000126626782866 -0.000349481386086 0)
(0.00154806995683 0.00154851449976 0)
(-0.00175564479407 -0.0017030367523 0)
(0.00108693174807 -0.00460541238682 0)
(-0.00513317611437 -0.00396325417039 0)
(-0.00480118061286 0.00410668055375 0)
(-0.0058278376822 -3.17482610608e-05 0)
(-0.00144881775753 0.00174131531737 0)
(0.00132678744119 -0.00173343125445 0)
(-0.00210815645367 -0.00463667507801 0)
(0.00459470861668 -0.000642674660356 0)
(0.00218360348274 0.00455961432189 0)
(0.00409616977055 -0.00504812978845 0)
(0.0049213646672 0.00387835921078 0)
(-0.00167615195354 -0.007379364197 0)
(-0.00225591502545 0.00746326825545 0)
(-0.00632220262277 0.00614509246236 0)
(-0.00640098890832 0.00875808601539 0)
(-0.00818171742895 0.00805343006324 0)
(-0.00597707052584 -0.00903280855118 0)
(-0.00867903749526 -0.00652993847582 0)
(0.00598229719584 0.00904591040168 0)
(0.008585394418 0.00645069069265 0)
(0.00900576853842 -0.00603311759091 0)
(0.00616978039263 -0.00875447903856 0)
(0.00259183357661 -0.00762327749508 0)
(-0.000677312536141 0.00474239014441 0)
(0.00754301681662 0.000944835897469 0)
(0.00636238824043 -0.00608016208552 0)
(0.00586231108893 0.00641452534723 0)
(-0.00765982179711 -0.00233565576657 0)
(-0.00729135877803 0.00222179349026 0)
(0.00753954979018 -0.00206856030938 0)
(0.00196510359775 0.00724454529251 0)
(-0.00858838814917 -0.00446554781106 0)
(-0.00606624996714 -0.00623332767857 0)
(0.00815881601034 0.00462588937854 0)
(0.00447760679016 -0.00837555871671 0)
(0.00816429740281 -0.0080584482135 0)
(8.54397631144e-05 -0.0102408666595 0)
(0.000107752523967 0.0102767368022 0)
(-0.00391912470688 0.00932086483709 0)
(-0.00890828993777 0.00618189373108 0)
(0.0024602446893 -0.00944432780758 0)
(-0.00943471930043 0.00346044573129 0)
(-0.00957192459951 -0.000724676825698 0)
(0.0080831515684 0.00816063859211 0)
(0.00941869749813 -0.00361697401522 0)
(0.00973432377281 -0.000854095445206 0)
(-0.00786600072613 -0.00839640283584 0)
(-0.00359783362046 -0.0093525093915 0)
(0.00465500077365 0.0105722207681 0)
(0.00793398012102 -0.00866578347501 0)
(-0.00671158599473 -0.00967135692027 0)
(0.00469222365803 -0.0104385678246 0)
(0.0113976737966 0.00120545618541 0)
(-0.00510403881232 0.0103301207447 0)
(0.00226508432118 -0.010867562948 0)
(0.0102013704035 0.00499602288611 0)
(-0.011432340786 0.00138900207231 0)
(0.00969487055639 0.00669423797073 0)
(-0.00968254030321 0.00669651767508 0)
(-0.010434157564 0.0048418282147 0)
(0.00364216100327 0.00935502589897 0)
(0.00232835278681 0.0109147025358 0)
(0.0100362504868 0.00298732620365 0)
(0.00684115109516 0.00959720021433 0)
(-0.0110820890931 -0.000760866734466 0)
(-0.010214922902 -0.00295660249205 0)
(-0.00940324430552 -0.00711919865775 0)
(-0.00853854063006 -0.00809153391083 0)
(0.00685958933566 -0.00957630770322 0)
(0.00963194256851 -0.00678577316924 0)
(0.0104373633427 -0.00486878590189 0)
(0.0109271565772 -0.00254350434661 0)
(-0.00485213936199 -0.0104204522567 0)
(-0.00228629170062 -0.0108376556678 0)
(-0.00140436053219 0.0113788152991 0)
(0.00961853019758 -0.00650024646821 0)
(-0.00639391117501 -0.00972170968536 0)