/*--------------------------------*- C++ -*----------------------------------*\
| =========                 |                                                 |
| \\      /  F ield         | OpenFOAM: The Open Source CFD Toolbox           |
|  \\    /   O peration     | Version:  v2006                                 |
|   \\  /    A nd           | Website:  www.openfoam.com                      |
|    \\/     M anipulation  |                                                 |
\*---------------------------------------------------------------------------*/
FoamFile
{
    version     2.0;
    format      ascii;
    class       volVectorField;
    location    "0";
    object      U;
}
// * * * * * * * * * * * * * * * * * * * * * * * * * * * * * * * * * * * * * //

dimensions      [0 1 -1 0 0 0 0];


internalField   nonuniform List<vector> 
3280
(
(0.123582250596 -0.00279466086111 0)
(0.11433785441 0.00195872503449 0)
(0.115410988297 0.00539726641351 0)
(0.114246961343 -0.00760891493905 0)
(0.125411834463 0.00311416629972 0)
(0.110515288566 0.00422100876141 0)
(0.114060073485 -0.00186903678038 0)
(0.118167069449 0.00690888635836 0)
(0.119006210566 -0.00695834577603 0)
(0.122242686475 0.00159353857092 0)
(0.122376224767 0.00758980060688 0)
(0.126144498914 -0.00404807631745 0)
(0.109193708467 0.00125231417071 0)
(0.110968794171 0.00714265669153 0)
(0.127680030928 0.00120466856224 0)
(0.117001724909 -0.00925368524355 0)
(0.116610221282 0.00926195166076 0)
(0.113837887906 0.00762635382197 0)
(0.1199476786 0.00915159574053 0)
(0.125700841351 -0.00697467229246 0)
(0.125222006041 0.00748048241123 0)
(0.111308060957 -0.00748063982971 0)
(0.129263797853 -0.00066455781782 0)
(0.108403901011 -0.00590349600157 0)
(0.110885250978 -0.0091975112226 0)
(0.109315876385 0.007674120732 0)
(0.12731045833 -0.00763644381771 0)
(0.107674948207 0.00300515679413 0)
(0.125984146933 0.00896459318138 0)
(0.1149534637 0.0106061142507 0)
(0.112306598189 -0.00661172054253 0)
(0.111786587625 0.00596883547374 0)
(0.127104809008 -0.00696182346361 0)
(0.128617098935 -0.00573054403087 0)
(0.109020666461 -0.00688502420938 0)
(0.111467775292 -0.00894201994147 0)
(0.11698034523 -0.0115789884823 0)
(0.125123063611 -0.00920913822237 0)
(0.127609387485 0.00676019463275 0)
(0.114229215258 -0.0110873101869 0)
(0.124066897888 0.0102859469571 0)
(0.122083171647 0.0111986909498 0)
(0.107939984162 0.00567701853599 0)
(0.124030066396 -0.0103311225852 0)
(0.109416259362 0.00690134398351 0)
(0.114014627119 0.0110200466363 0)
(0.129454846727 -0.00385244256807 0)
(0.112850385652 0.00978174723202 0)
(0.125739882967 -0.00724526598051 0)
(0.111006930662 0.00731345113708 0)
(0.111041664899 -0.00740936501527 0)
(0.125571011699 0.00741443010621 0)
(0.125259641389 0.00877894162033 0)
(0.12379120651 0.0096692852967 0)
(0.127428223739 0.00564271468255 0)
(0.128033624376 -0.0054512201497 0)
(0.129074460279 0.00389265751286 0)
(0.121401914574 0.0110658146642 0)
(0.114050308774 -0.0107174686022 0)
(0.109643236705 0.00497165512778 0)
(0.114179862476 -0.00964733054161 0)
(0.112965559543 0.00455869669353 0)
(0.123633328148 -0.00473987959037 0)
(0.123078764349 0.00529653996172 0)
(0.11369216966 -0.00540650929369 0)
(0.123756433852 -0.00719274742416 0)
(0.1256205636 0.00544920972132 0)
(0.111700800099 -0.004951168592 0)
(0.108237547945 -0.00400596579868 0)
(0.119884290643 -0.0108037188086 0)
(0.126743794097 -0.00496079059499 0)
(0.123304420079 0.00837963626011 0)
(0.114138388026 -0.00704190982447 0)
(0.122371502839 -0.00479716897229 0)
(0.114439121315 0.00464890526191 0)
(0.113408791499 -0.00415317924185 0)
(0.122666985703 0.0060765692498 0)
(0.123041760784 0.00387614790763 0)
(0.120131898809 0.00909235675424 0)
(0.124311392344 -0.00430626350409 0)
(0.118849731086 0.00982428946239 0)
(0.114702244666 -0.00814708236408 0)
(0.120121963033 -0.00914073065156 0)
(0.114081572016 0.00763147095713 0)
(0.116153522185 0.00217859455769 0)
(0.116144184366 -0.00222404885075 0)
(0.115196749077 -0.00307813652164 0)
(0.12145336934 -0.00315953389812 0)
(0.116057646922 0.00211592542233 0)
(0.123832339192 -0.00316289213461 0)
(0.112809697479 0.00310123026064 0)
(0.115190798295 0.00304337824629 0)
(0.11504976769 0.00539462022804 0)
(0.110565184384 -0.00250237521439 0)
(0.121565578636 0.00477067136634 0)
(0.121431444389 0.00310633892902 0)
(0.122325181448 0.00291331293721 0)
(0.116470503764 0.00220207561999 0)
(0.115744432717 0.00239751504532 0)
(0.115685531842 0.00210625013939 0)
(0.119526256344 0.00127469019885 0)
(0.119614158322 -0.00127484508792 0)
(0.119869001918 0.00572327994701 0)
(0.114907277477 -0.00231481560132 0)
(0.125326685687 0.000378605037377 0)
(0.120697623686 -0.00346695598754 0)
(0.120973723569 0.00216174152026 0)
(0.1161153096 0.00362023230489 0)
(0.11709410476 0.00125397892068 0)
(0.115890789378 0.00544629142142 0)
(0.119597585995 0.00113640835776 0)
(0.116932603076 -0.00122082888968 0)
(0.119210996078 0.00104049486071 0)
(0.119375998981 -0.000960116676792 0)
(0.119529491332 -0.00139551478637 0)
(0.116648412447 0.003587569002 0)
(0.113396384653 0.00102476154955 0)
(0.117176166405 0.00141616818163 0)
(0.116598908457 -0.0047048643259 0)
(0.118813977138 -0.00537461374952 0)
(0.116961963076 0.00119904807326 0)
(0.120426354827 -0.0012242970603 0)
(0.117223597242 0.00164225871043 0)
(0.118751684409 -0.000481274137848 0)
(0.117832295301 -0.000444970343424 0)
(0.118759406159 0.000429652270789 0)
(0.119519996894 0.00212226543478 0)
(0.117107136039 -0.00286685106867 0)
(0.118814288326 -0.00376705982202 0)
(0.118315728651 0.00411917623478 0)
(0.119025340831 0.000687150549334 0)
(0.117815455213 0.000455640932037 0)
(0.119401051083 -0.00166209511496 0)
(0.117134446286 -0.00175827589331 0)
(0.12295405371 0.000101450235126 0)
(0.11740669079 0.000771660022383 0)
(0.118124658028 -0.000174708809252 0)
(0.118475418114 0.000172661527782 0)
(0.118472168036 -0.000174451688733 0)
(0.119049414416 -0.000568898687214 0)
(0.118830325339 0.000435037383709 0)
(0.117714980147 -0.000760189775695 0)
(0.117523193374 -0.00254064384169 0)
(0.121483884475 -0.000234988092265 0)
(0.117534956171 -0.001757571853 0)
(0.115695666937 0.000426818516322 0)
(0.118953333085 0.00250399900387 0)
(0.117843775544 0.000545549744871 0)
(0.118013929602 0.000262434323409 0)
(0.117573079585 0.00054264660452 0)
(0.116097755952 -0.000855783149117 0)
(0.118583946606 0.00025708564526 0)
(0.118557016065 -0.000282972438252 0)
(0.118021001868 -0.000257126258746 0)
(0.117770702859 -0.000436043118882 0)
(0.118975574525 -0.00101045128288 0)
(0.118606897319 -0.000413842291518 0)
(0.120689481388 2.13943712998e-05 0)
(0.118572891666 0.000336356594302 0)
(0.118522380684 -0.00184064015228 0)
(0.118683144058 -0.000585863550649 0)
(0.118663146744 0.00186141268102 0)
(0.120248008774 -0.000236363724755 0)
(0.117994569211 -0.000247928840939 0)
(0.11765086145 -0.000390964213868 0)
(0.118707514787 -0.000303439968971 0)
(0.117976727968 0.000264606312256 0)
(0.118109508029 0.000233401259607 0)
(0.118056940962 0.000177148401121 0)
(0.117899679943 0.00095705808427 0)
(0.118135402133 -0.000132608994909 0)
(0.118199230442 0.000114365979837 0)
(0.118349675813 -4.75353466603e-05 0)
(0.118401466402 0.000114012682192 0)
(0.118197115429 -0.000116685323118 0)
(0.11756161131 0.000327381751024 0)
(0.118124893572 0.000173740233049 0)
(0.117994190329 -0.000530005896222 0)
(0.119788434289 -6.27893763134e-05 0)
(0.118468211047 -0.000229859776156 0)
(0.118411219429 -9.84509674721e-05 0)
(0.118245527516 4.70102737755e-05 0)
(0.118348679372 5.59446649678e-05 0)
(0.118353089766 -4.55967671515e-05 0)
(0.117621883153 0.00023764632478 0)
(0.11836618949 -8.24217776266e-05 0)
(0.11838789682 6.90100776324e-05 0)
(0.11832551796 -2.55252755289e-05 0)
(0.11825061087 -4.68263813429e-05 0)
(0.118352302094 4.86717286908e-05 0)
(0.118251717024 5.12871861348e-05 0)
(0.117504126797 0.000142804038769 0)
(0.118146570285 -0.00026905812962 0)
(0.119102238823 -0.000136360771438 0)
(0.117494608746 -0.000232597589974 0)
(0.118207172949 7.333178845e-05 0)
(0.118387077527 -0.000120824682721 0)
(0.11824870494 -4.39562951813e-05 0)
(0.118213782433 -6.80990928779e-05 0)
(0.118509034473 0.000669746566204 0)
(0.118232472155 -0.00100994325064 0)
(0.118246775406 7.4486491069e-05 0)
(0.118314298561 1.45173400348e-05 0)
(0.118062026818 0.000110243909781 0)
(0.118369682402 -0.000542577174205 0)
(0.118216914529 -0.000595421384829 0)
(0.117868027493 -0.000131661892393 0)
(0.118274602407 -2.52699733889e-05 0)
(0.118328229873 2.77835421941e-05 0)
(0.118274420717 2.57745777998e-05 0)
(0.118276645942 -2.74865686801e-05 0)
(0.118245823001 -3.97291289787e-05 0)
(0.118321706964 2.55803476607e-05 0)
(0.117675535744 4.44264912684e-05 0)
(0.118152807039 0.0003959574932 0)
(0.118745688837 -0.000131398413902 0)
(0.118412810257 0.000345456734233 0)
(0.118320000514 -2.39209222013e-05 0)
(0.118275304431 2.09123728464e-05 0)
(0.118263713859 -4.9513348129e-05 0)
(0.118125511329 -9.17843648173e-05 0)
(0.11794908347 0.000128884921894 0)
(0.118588470825 7.41164512589e-05 0)
(0.11829096078 -8.04704626749e-06 0)
(0.118301777559 -0.00039989577253 0)
(0.118292505198 8.47101222193e-06 0)
(0.118296151529 4.07251268105e-06 0)
(0.11830439131 4.1744858762e-06 0)
(0.11829556889 -4.20843430898e-06 0)
(0.118309385126 8.35579122253e-06 0)
(0.118304356789 -4.14235984812e-06 0)
(0.118223123536 0.000200739445919 0)
(0.118267160719 -0.00034335548031 0)
(0.11828831309 1.51759556593e-05 0)
(0.1185242414 -7.69701446966e-05 0)
(0.118187383355 5.24092086573e-05 0)
(0.118219465051 -4.23517784307e-05 0)
(0.118373315885 4.14502654134e-05 0)
(0.118308501292 -7.55565439727e-06 0)
(0.118243489402 0.000366231438125 0)
(0.117883418929 5.38982854017e-05 0)
(0.118747826483 -2.5777921292e-05 0)
(0.118306884889 7.72281886814e-06 0)
(0.11830180213 1.66383391124e-06 0)
(0.118291713217 -1.09852973526e-05 0)
(0.118404950673 -3.69262996257e-05 0)
(0.118298140244 -1.71931787281e-06 0)
(0.11829841848 1.71321285976e-06 0)
(0.118298773746 -1.30906787171e-06 0)
(0.118301215195 1.2869436717e-06 0)
(0.118295146213 6.15138266223e-06 0)
(0.118266893388 0.000180696424986 0)
(0.118277361 0.000248683803877 0)
(0.118288427759 -1.80506294679e-05 0)
(0.118106789087 3.35092650349e-05 0)
(0.11848869857 -3.86658876235e-05 0)
(0.118064743365 -1.13979776988e-06 0)
(0.118308759714 -1.23664160544e-05 0)
(0.118525017228 -2.47952597639e-05 0)
(0.118487633974 3.24714364312e-05 0)
(0.118311828164 8.43931769737e-06 0)
(0.118301153248 -1.21636313084e-06 0)
(0.118306169663 -4.9318773167e-06 0)
(0.118452054184 -7.83771389058e-06 0)
(0.118296610867 -4.55913592899e-06 0)
(0.118300300764 2.8764622492e-07 0)
(0.118299362513 6.38834993602e-07 0)
(0.118179377648 2.99902767662e-06 0)
(0.11833928159 -1.6565371136e-05 0)
(0.118321202183 -0.000109829133366 0)
(0.118272000458 -8.18319248628e-05 0)
(0.118319839345 8.02459954779e-05 0)
(0.118188139826 -2.5831432137e-05 0)
(0.118384970483 2.46619354938e-05 0)
(0.11840734662 -1.45642468164e-05 0)
(0.118219389188 2.74444999675e-05 0)
(0.118301495568 -1.73868103879e-06 0)
(0.118301424176 1.66395323993e-06 0)
(0.118298878748 -9.79051680161e-07 0)
(0.118283478608 3.35717483222e-05 0)
(0.118296337181 5.30910979436e-06 0)
(0.118316176419 -3.13246074437e-05 0)
(0.118160893956 1.54100889801e-05 0)
(0.118299181358 9.30417399269e-07 0)
(0.118299715621 -2.71635324503e-07 0)
(0.118300058158 -5.80679751927e-08 0)
(0.118300055658 5.55355414822e-08 0)
(0.118298766814 -9.74395161343e-07 0)
(0.118234793982 8.8020458504e-06 0)
(0.118292671832 1.39896532799e-05 0)
(0.118299639374 3.96210613039e-07 0)
(0.118299867609 1.25895774247e-07 0)
(0.118299619038 3.38918483292e-07 0)
(0.118301162775 -9.13960113087e-07 0)
(0.118300110374 1.16500733902e-07 0)
(0.118300127632 -1.20002440037e-07 0)
(0.118306582136 3.90625723757e-06 0)
(0.118298798798 1.60193766108e-06 0)
(0.118297565356 -1.69552007622e-06 0)
(0.118299676732 -3.59908585279e-07 0)
(0.118291875035 1.90764613898e-05 0)
(0.118336603575 -1.29712433342e-05 0)
(0.11826045236 1.07074094879e-05 0)
(0.1183004588 -3.9624608252e-07 0)
(0.118301733663 -2.45325463652e-06 0)
(0.118367873844 9.36704468822e-06 0)
(0.118250340225 -1.22881950339e-05 0)
(0.118299889195 -1.16968123089e-07 0)
(0.11829399621 -3.72563868667e-06 0)
(0.118299878572 1.28619056623e-07 0)
(0.118299880733 -1.1298953441e-07 0)
(0.118300325451 3.61740965442e-07 0)
(0.118376351002 -6.45299386167e-06 0)
(0.118355246808 1.19498997788e-05 0)
(0.118310017375 -7.49239514021e-05 0)
(0.1182850829 4.91318579386e-05 0)
(0.11830633047 -1.2313453461e-05 0)
(0.118302147193 7.40218924413e-05 0)
(0.11830011519 1.3073360796e-07 0)
(0.118299888352 -1.26633568566e-07 0)
(0.118298868599 1.67541587868e-06 0)
(0.118300124546 1.17242029348e-07 0)
(0.118299857539 1.6092848065e-07 0)
(0.118299944296 -5.56234816772e-08 0)
(0.118301043574 -1.63727245272e-06 0)
(0.11829481425 3.39309979646e-05 0)
(0.118293823223 1.97127396843e-05 0)
(0.118304037283 -2.28002734682e-06 0)
(0.118299860213 1.23007691344e-07 0)
(0.118306096161 -1.9917751907e-05 0)
(0.118299717306 -3.55805550106e-07 0)
(0.118299740488 -2.16678326575e-07 0)
(0.118297879075 -1.31864938129e-06 0)
(0.118300530028 4.12823422824e-07 0)
(0.118300712332 1.02982478685e-06 0)
(0.118300127776 -1.35050468588e-07 0)
(0.118305263202 -3.3486988901e-05 0)
(0.118305899756 -2.58383724652e-05 0)
(0.118294842521 -3.78672605856e-05 0)
(0.118337789073 -4.06623265586e-06 0)
(0.118300128992 -1.46741059769e-07 0)
(0.118300391507 -5.01114091481e-07 0)
(0.118299864414 -1.20056339141e-07 0)
(0.118296387148 7.88838739368e-06 0)
(0.118292903223 -2.2655020918e-05 0)
(0.1182999415 5.86856273993e-08 0)
(0.118287170044 -4.95164412804e-06 0)
(0.118304400174 2.35140939668e-06 0)
(0.11830167366 2.68842948559e-06 0)
(0.118299951464 4.25337271312e-08 0)
(0.118300040497 4.6263520031e-08 0)
(0.118300083456 -6.94205121703e-08 0)
(0.118300128534 -1.67191279583e-07 0)
(0.118299959962 -4.54932688262e-08 0)
(0.118300007276 7.05740566098e-09 0)
(0.118300007294 -7.54856137477e-09 0)
(0.118299992839 7.39927123686e-09 0)
(0.118301868858 -4.28134025152e-06 0)
(0.118297613999 -6.05328925856e-06 0)
(0.118299812235 2.54295657313e-07 0)
(0.118305407276 -2.13845907557e-06 0)
(0.118280230311 6.9479433152e-08 0)
(0.118300422306 -6.37799210899e-07 0)
(0.118299811183 -1.44692777472e-07 0)
(0.118300897671 1.5846014505e-06 0)
(0.118319499769 2.02067072651e-06 0)
(0.118298129751 -1.83596476325e-05 0)
(0.118299924249 9.19624983425e-08 0)
(0.118300184307 -1.43073740373e-07 0)
(0.118300442901 -3.02340497804e-07 0)
(0.118280893831 -3.27043153594e-06 0)
(0.118308824192 3.04968100515e-06 0)
(0.118290915313 -2.64940740855e-06 0)
(0.118299298609 -1.11424611376e-06 0)
(0.118297186495 -8.75811069509e-06 0)
(0.118300095115 7.94328328954e-08 0)
(0.118300281029 2.3652533719e-07 0)
(0.118299426952 -3.68736390754e-07 0)
(0.118299910921 -1.13065106973e-07 0)
(0.118299984053 1.38225170702e-08 0)
(0.118301287402 8.9774020003e-06 0)
(0.118300006797 7.45774206907e-09 0)
(0.118300017714 -1.52837661421e-08 0)
(0.118299983654 1.88241065117e-08 0)
(0.118300016487 1.42675575883e-08 0)
(0.118299992573 -7.1854041074e-09 0)
(0.1183003777 -6.92898750872e-07 0)
(0.118300469482 2.75182658506e-07 0)
(0.118298516279 5.7922326803e-06 0)
(0.118299944033 7.64091765684e-08 0)
(0.118299985269 -1.68600156586e-08 0)
(0.118300013805 1.6035548559e-08 0)
(0.118309971834 -1.43585616222e-06 0)
(0.118294202804 1.52277283841e-06 0)
(0.118301559025 -8.14957423346e-06 0)
(0.118300129425 -1.88569648816e-07 0)
(0.118300098914 1.43805794117e-07 0)
(0.118301297251 -2.47770897379e-06 0)
(0.118300007995 -7.28127944875e-09 0)
(0.118298573515 4.24323282773e-06 0)
(0.118300002405 -2.5381517489e-09 0)
(0.118299997639 2.47451829537e-09 0)
(0.118288883124 1.38027789296e-06 0)
(0.118299126667 -2.16757901061e-06 0)
(0.118299982339 -1.52549269021e-08 0)
(0.118300015053 -1.73910043838e-08 0)
(0.118299919001 -1.13393467514e-07 0)
(0.118309473538 1.85152344631e-06 0)
(0.11830350797 7.29952636386e-07 0)
(0.118299995113 4.17572064704e-09 0)
(0.11829999762 2.68659498727e-09 0)
(0.118299951505 7.31314510435e-08 0)
(0.118295056574 7.9235583163e-07 0)
(0.118299391967 2.89224450529e-07 0)
(0.118300001025 1.02078577225e-09 0)
(0.118300338996 7.11977894923e-07 0)
(0.118301844907 -5.88289301904e-07 0)
(0.118300355431 -8.72353720937e-07 0)
(0.118300649732 -4.91674767229e-06 0)
(0.118297186841 6.36512406049e-07 0)
(0.118295292693 4.2770475009e-07 0)
(0.118300002512 2.3980332627e-09 0)
(0.118299990373 1.20092423465e-08 0)
(0.118294796236 1.07997763576e-07 0)
(0.118300007028 5.73533858718e-09 0)
(0.118299997517 -2.36924503511e-09 0)
(0.118300003118 2.77210610885e-09 0)
(0.118299437419 -1.62431178958e-06 0)
(0.118300018272 -2.39946159215e-08 0)
(0.118299625919 -5.20527991665e-06 0)
(0.118299998967 -1.02862309234e-09 0)
(0.118299997268 -2.42053152443e-09 0)
(0.118300038752 -5.7141019977e-08 0)
(0.118299998989 1.01358472422e-09 0)
(0.11829790463 -7.14345494342e-07 0)
(0.118300874088 -3.08404911642e-06 0)
(0.118300001069 -1.07390297283e-09 0)
(0.118287898619 5.8606311388e-07 0)
(0.118299921595 1.48256472418e-07 0)
(0.118299999279 8.13658715954e-10 0)
(0.118297647456 -4.09751646059e-07 0)
(0.11830000084 7.41294796437e-10 0)
(0.118299999184 -7.22262241982e-10 0)
(0.118300000646 -7.25644878576e-10 0)
(0.118299980599 -1.37108143496e-08 0)
(0.118300169918 8.94732341632e-08 0)
(0.118300182417 -9.6306657818e-08 0)
(0.118300060788 -1.05594761757e-07 0)
(0.11829999989 -1.13550427084e-10 0)
(0.118300020662 1.46492548543e-08 0)
(0.118301022853 3.17584036195e-07 0)
(0.118300558764 -2.19212293906e-07 0)
(0.118299372447 -2.32315941577e-07 0)
(0.118299606706 -1.81681370599e-06 0)
(0.118300399277 -1.265315554e-06 0)
(0.118302524301 -3.7296855806e-07 0)
(0.118299999611 -4.17325637511e-10 0)
(0.118299913572 -1.63923689668e-07 0)
(0.118300008058 2.73516919901e-06 0)
(0.118300246702 -2.86502812597e-06 0)
(0.118299713639 1.18310238842e-06 0)
(0.118301660648 -3.6842741352e-07 0)
(0.118299056764 -2.86229952493e-07 0)
(0.118300140693 -2.91251351465e-07 0)
(0.118299999608 3.65875362521e-10 0)
(0.118299895281 -5.96720238144e-08 0)
(0.118300353078 2.28382882282e-06 0)
(0.118299188789 2.82326679376e-07 0)
(0.118299996129 -4.83177931693e-09 0)
(0.118299987098 -1.88890528275e-08 0)
(0.118300001438 -1.727093674e-09 0)
(0.118300330172 -1.33582011765e-06 0)
(0.118299997142 3.63190655273e-09 0)
(0.118299820888 8.96745020369e-08 0)
(0.118299856165 -2.96747013659e-07 0)
(0.118300000379 4.05505992166e-10 0)
(0.118299607132 2.25024903934e-06 0)
(0.118299999771 2.60741145329e-10 0)
(0.118299998942 -1.35320697852e-09 0)
(0.118300018115 -3.16115674508e-08 0)
(0.118300539144 1.47984938686e-07 0)
(0.118298717004 9.31178697314e-08 0)
(0.11830000011 -1.20003201817e-10 0)
(0.118299999883 -1.28191453373e-10 0)
(0.11830000012 1.10348061799e-10 0)
(0.118299999973 -2.58340174411e-11 0)
(0.118300000099 -1.02298255526e-10 0)
(0.118300000026 2.69967978917e-11 0)
(0.118299999968 3.3657119798e-11 0)
(0.118299997823 -2.93815985097e-09 0)
(0.118299844121 -8.35400859711e-07 0)
(0.118299856385 9.8746712565e-07 0)
(0.118300882698 -1.41989406822e-07 0)
(0.11830000745 -1.18591956643e-08 0)
(0.118300172619 -7.22969254338e-08 0)
(0.118300129379 1.04567617666e-06 0)
(0.118300445105 -1.40393832437e-07 0)
(0.118300001456 1.86482826317e-09 0)
(0.118300001579 -1.23244237002e-09 0)
(0.118300003904 -2.77832149876e-09 0)
(0.118299429047 1.54925820589e-07 0)
(0.118300002739 3.86522087182e-09 0)
(0.118300121172 -1.11996771085e-06 0)
(0.118300163448 -9.18387815552e-07 0)
(0.118301385983 -1.4486166306e-07 0)
(0.118300092625 -4.47127940469e-08 0)
(0.118299989345 -6.95017982993e-09 0)
(0.118299944802 -2.89694518599e-08 0)
(0.118300001321 1.02881685589e-09 0)
(0.118300000102 9.85735729498e-11 0)
(0.11829999975 -2.19215793637e-10 0)
(0.118299999887 -1.03936267681e-10 0)
(0.118299947914 -1.14192028277e-07 0)
(0.118299999897 1.06758296391e-10 0)
(0.118300000104 1.13236537865e-10 0)
(0.11830000027 -2.37325574884e-10 0)
(0.118300090077 4.35450538389e-08 0)
(0.118300000093 1.12176343743e-10 0)
(0.118300000105 -8.76284588022e-11 0)
(0.118299988733 2.22142861954e-08 0)
(0.118299999258 -1.04705496338e-09 0)
(0.118300040804 1.18122904374e-07 0)
(0.118300276687 6.176926204e-08 0)
(0.118300011371 -2.23929180706e-08 0)
(0.118299995587 7.50322715583e-09 0)
(0.118300485098 -2.9568415462e-08 0)
(0.118300007396 -4.35317039034e-09 0)
(0.118300121137 -4.1728987576e-08 0)
(0.1182995845 4.37512752385e-08 0)
(0.118299937888 -2.79144236154e-07 0)
(0.118300003647 2.29946447952e-09 0)
(0.118299997608 -3.8007420364e-09 0)
(0.118299878446 4.18950264002e-08 0)
(0.118299718096 -6.28907189937e-08 0)
(0.118299796881 5.33005151677e-08 0)
(0.118299729013 6.02387271662e-08 0)
(0.118299946543 2.0114082085e-07 0)
(0.118299996229 2.37180676473e-09 0)
(0.118300004387 7.45010352291e-09 0)
(0.118300055726 -2.36013063058e-08 0)
(0.118299983161 3.6087606157e-08 0)
(0.118299992784 1.31789494825e-08 0)
(0.118299999753 -1.95944058754e-10 0)
(0.11829998982 -5.02010391899e-07 0)
(0.118300013345 -7.31357610615e-09 0)
(0.118300501214 -1.02120422671e-08 0)
(0.118299943127 -3.1361886029e-07 0)
(0.118299832983 5.07253595509e-08 0)
(0.118299969624 4.98305547065e-07 0)
(0.118299979352 -1.04238931946e-08 0)
(0.118299999626 -5.00048155364e-10 0)
(0.118299965216 1.61132659694e-08 0)
(0.118300052952 -1.98898805964e-07 0)
(0.11830050342 1.02105425856e-08 0)
(0.118299949614 -1.65366261777e-07 0)
(0.118300486387 2.96134344746e-08 0)
(0.118300006636 -1.21468289299e-08 0)
(0.118300082336 3.16494392662e-08 0)
(0.118300000188 -2.37062529975e-10 0)
(0.118299986687 -7.2841770653e-09 0)
(0.118300000242 1.91840735892e-10 0)
(0.118299964273 -1.66569226889e-08 0)
(0.118299999897 -8.57482652799e-11 0)
(0.118299959297 -1.17816367452e-07 0)
(0.118300000032 3.11877539512e-11 0)
(0.118299999804 2.47085813915e-10 0)
(0.11830000003 -3.0502359632e-11 0)
(0.118300033327 1.54800787913e-08 0)
(0.11830044634 4.54451140819e-08 0)
(0.118300031185 -8.10116892973e-08 0)
(0.118299997411 4.11544694826e-09 0)
(0.118299995522 -7.60032840612e-09 0)
(0.118299992784 -1.31789494825e-08 0)
(0.11830001018 -5.02010391899e-07 0)
(0.118300029967 -4.89631287135e-07 0)
(0.118299978229 1.10413430176e-08 0)
(0.118299999803 -2.49696643487e-10 0)
(0.118300041997 -4.14126800797e-07 0)
(0.118299783729 -5.70198556721e-08 0)
(0.118299840151 -4.91470070707e-08 0)
(0.118299988689 -2.23155746571e-08 0)
(0.1182999834 -3.57890143679e-08 0)
(0.11830015439 -4.67693062476e-08 0)
(0.118300217256 -5.72421739243e-08 0)
(0.118300275962 -6.15604112837e-08 0)
(0.118300022578 1.14425584832e-08 0)
(0.118300013369 7.32777176321e-09 0)
(0.118300022645 -1.14774742013e-08 0)
(0.118300033627 -1.56179205217e-08 0)
(0.118300007352 4.33009198073e-09 0)
(0.118299999159 1.19119207891e-09 0)
(0.11830006323 3.5387701687e-07 0)
(0.118300056115 -3.87992807273e-07 0)
(0.118300368572 5.30706614435e-08 0)
(0.118299955095 4.4324342937e-07 0)
(0.11829994835 3.66188097899e-07 0)
(0.118299967706 8.38759236633e-08 0)
(0.118299975536 5.73846751559e-08 0)
(0.118299988004 6.57910462688e-09 0)
(0.118299999906 -1.12734565426e-10 0)
(0.118300000775 -1.09966702783e-09 0)
(0.118300000251 -1.99096091148e-10 0)
(0.118300000552 -4.1007000887e-10 0)
(0.118300000079 -9.47547902945e-11 0)
(0.118299942218 2.61616842292e-07 0)
(0.118299999006 7.06397091417e-10 0)
(0.118299999601 5.32668735776e-10 0)
(0.118299999987 1.32828476822e-11 0)
(0.118299916571 3.21467825269e-08 0)
(0.118299942865 -2.16723169054e-07 0)
(0.118300200836 5.27494183996e-08 0)
(0.118299914899 -3.27840454981e-08 0)
(0.118299545026 2.82572024451e-08 0)
(0.118299482585 1.08473725122e-08 0)
(0.118299944006 -2.38635584944e-08 0)
(0.118300049741 1.63468281913e-07 0)
(0.118300057286 2.17273459722e-07 0)
(0.118300000395 -5.27226808372e-10 0)
(0.118300061923 2.77666312859e-07 0)
(0.11830011274 3.84820042003e-08 0)
(0.118300055147 2.34750611189e-08 0)
(0.118300021769 -5.1044520855e-08 0)
(0.11829949799 -1.01804003561e-08 0)
(0.118299509199 -2.99787849173e-08 0)
(0.118300000497 3.71804107957e-10 0)
(0.118300000095 7.91915582568e-11 0)
(0.118299943811 -3.96525537828e-07 0)
(0.118299953872 -4.53826479472e-07 0)
(0.118299557915 -4.52002865606e-08 0)
(0.118299632921 -5.27383253779e-08 0)
(0.118300030071 4.94141857981e-07 0)
(0.1183000002 2.52621458126e-10 0)
(0.118299999774 1.78898776612e-10 0)
(0.118299970656 -4.82326282881e-07 0)
(0.118299998921 -7.61027940098e-10 0)
(0.118300000421 5.65992912796e-10 0)
(0.118299992503 -4.40661453779e-09 0)
(0.118299996146 -2.41289728844e-09 0)
(0.118300330182 -5.95283240959e-08 0)
(0.11830001025 5.01388382761e-07 0)
(0.118299989752 5.05838964406e-07 0)
(0.118300007362 1.34348049048e-08 0)
(0.118300011276 2.22850900164e-08 0)
(0.118300016158 3.50203495933e-08 0)
(0.118299999461 -4.04219730874e-10 0)
(0.118173373217 -0.000349481386086 0)
(0.119848069957 0.00154851449976 0)
(0.116544355206 -0.0017030367523 0)
(0.119386931748 -0.00460541238682 0)
(0.113166823886 -0.00396325417039 0)
(0.113498819387 0.00410668055375 0)
(0.112472162318 -3.17482610608e-05 0)
(0.116851182242 0.00174131531737 0)
(0.119626787441 -0.00173343125445 0)
(0.116191843546 -0.00463667507801 0)
(0.122894708617 -0.000642674660356 0)
(0.120483603483 0.00455961432189 0)
(0.122396169771 -0.00504812978845 0)
(0.123221364667 0.00387835921078 0)
(0.116623848046 -0.007379364197 0)
(0.116044084975 0.00746326825545 0)
(0.111977797377 0.00614509246236 0)
(0.111899011092 0.00875808601539 0)
(0.110118282571 0.00805343006324 0)
(0.112322929474 -0.00903280855118 0)
(0.109620962505 -0.00652993847582 0)
(0.124282297196 0.00904591040168 0)
(0.126885394418 0.00645069069265 0)
(0.127305768538 -0.00603311759091 0)
(0.124469780393 -0.00875447903856 0)
(0.120891833577 -0.00762327749508 0)
(0.117622687464 0.00474239014441 0)
(0.125843016817 0.000944835897469 0)
(0.12466238824 -0.00608016208552 0)
(0.124162311089 0.00641452534723 0)
(0.110640178203 -0.00233565576657 0)
(0.111008641222 0.00222179349026 0)
(0.12583954979 -0.00206856030938 0)
(0.120265103598 0.00724454529251 0)
(0.109711611851 -0.00446554781106 0)
(0.112233750033 -0.00623332767857 0)
(0.12645881601 0.00462588937854 0)
(0.12277760679 -0.00837555871671 0)
(0.126464297403 -0.0080584482135 0)
(0.118385439763 -0.0102408666595 0)
(0.118407752524 0.0102767368022 0)
(0.114380875293 0.00932086483709 0)
(0.109391710062 0.00618189373108 0)
(0.120760244689 -0.00944432780758 0)
(0.1088652807 0.00346044573129 0)
(0.1087280754 -0.000724676825698 0)
(0.126383151568 0.00816063859211 0)
(0.127718697498 -0.00361697401522 0)
(0.128034323773 -0.000854095445206 0)
(0.110433999274 -0.00839640283584 0)
(0.11470216638 -0.0093525093915 0)
(0.122955000774 0.0105722207681 0)
(0.126233980121 -0.00866578347501 0)
(0.111588414005 -0.00967135692027 0)
(0.122992223658 -0.0104385678246 0)
(0.129697673797 0.00120545618541 0)
(0.113195961188 0.0103301207447 0)
(0.120565084321 -0.010867562948 0)
(0.128501370404 0.00499602288611 0)
(0.106867659214 0.00138900207231 0)
(0.127994870556 0.00669423797073 0)
(0.108617459697 0.00669651767508 0)
(0.107865842436 0.0048418282147 0)
(0.121942161003 0.00935502589897 0)
(0.120628352787 0.0109147025358 0)
(0.128336250487 0.00298732620365 0)
(0.125141151095 0.00959720021433 0)
(0.107217910907 -0.000760866734466 0)
(0.108085077098 -0.00295660249205 0)
(0.108896755694 -0.00711919865775 0)
(0.10976145937 -0.00809153391083 0)
(0.125159589336 -0.00957630770322 0)
(0.127931942569 -0.00678577316924 0)
(0.128737363343 -0.00486878590189 0)
(0.129227156577 -0.00254350434661 0)
(0.113447860638 -0.0104204522567 0)
(0.116013708299 -0.0108376556678 0)
(0.116895639468 0.0113788152991 0)
(0.127918530198 -0.00650024646821 0)
(0.111906088825 -0.00972170968536 0)
(0.108660747826 0.00652136783807 0)
(0.110463596144 0.00877962693574 0)
(0.124826014154 0.00957665963934 0)
(0.12708921113 0.00780275738363 0)
(0.125926766006 -0.0063443379656 0)
(0.124770310991 -0.00749385655459 0)
(0.12457369017 0.00639075600878 0)
(0.129619230723 0.00330305313671 0)
(0.129007108901 0.00494003584006 0)
(0.115753434414 0.0115442981426 0)
(0.122470473426 -0.0110688545572 0)
(0.124042274417 -0.00992058263759 0)
(0.108236383006 -0.00601760322645 0)
(0.126939592771 0.00653804389687 0)
(0.11175689297 0.00868065797683 0)
(0.10739714632 -0.00445682196656 0)
(0.111892961731 0.00960766295477 0)
(0.111356896168 0.00951550503264 0)
(0.126131570728 0.00789158905764 0)
(0.106909026679 0.00315474419992 0)
(0.11043800442 0.00793421747656 0)
(0.1204994707 0.0115757126992 0)
(0.129910380308 -0.00216127417345 0)
(0.122788931067 0.0108167204018 0)
(0.119033049597 0.0117461465437 0)
(0.113171130671 -0.0106345490266 0)
(0.119065640927 -0.0117417192389 0)
(0.124880206039 -0.00858707665242 0)
(0.112890228959 0.0104792847296 0)
(0.106689672732 -0.00193582210335 0)
(0.107442338603 -0.00415994703559 0)
(0.109575035558 -0.00664881687904 0)
(0.130128681832 -0.000121267113472 0)
(0.120602667316 -0.0115672242862 0)
(0.128196994052 0.00571320819575 0)
(0.115922986173 -0.0115827697158 0)
(0.129228365073 -0.00430579438609 0)
(0.106729027036 0.00158688480945 0)
(0.125850176536 0.0064017465607 0)
(0.110536229896 -0.00801778014989 0)
(0.110663935355 -0.00641752135237 0)
(0.112055437907 0.00759904311048 0)
(0.129646362177 -0.00100273841795 0)
(0.108152485218 -0.00493108997338 0)
(0.123595504685 -0.00904109066346 0)
(0.109289996256 -0.00533857885515 0)
(0.11073409695 0.00632780780734 0)
(0.129154086033 0.00261633723095 0)
(0.119070592225 -0.0113582264055 0)
(0.117784259621 -0.0116603807873 0)
(0.117708468552 0.0116868349 0)
(0.106874325036 -0.000937348927031 0)
(0.129600183519 -0.00255670077519 0)
(0.112034525218 -0.00768729313045 0)
(0.112391949909 -0.00893343865019 0)
(0.124660489154 0.00760257536446 0)
(0.124265338517 0.00878287960014 0)
(0.12834190593 0.00426721300318 0)
(0.124739211334 -0.0062374453924 0)
(0.1271344776 -0.00594318802511 0)
(0.12251129433 -0.0105330476369 0)
(0.129881153553 0.00165967560162 0)
(0.115366567503 0.0108951622127 0)
(0.1138373997 0.0103991791806 0)
(0.109341376513 0.0058579246583 0)